y,U_0,U_1,U_2
3.032,0.00419047,-8.61967e-07,-2.63518e-24
3.02776,0.00844464,-2.42479e-06,-1.16986e-23
3.0233,0.012638,-4.39408e-06,2.05013e-23
3.0186,0.0164154,-6.45811e-06,9.88318e-26
3.01367,0.0195245,-8.3554e-06,-1.83752e-23
3.00851,0.0219812,-9.95026e-06,5.13769e-23
3.00312,0.0239033,-1.10827e-05,7.21212e-24
2.99748,0.0253965,-1.15906e-05,-7.40615e-24
2.99159,0.0265599,-1.14346e-05,4.04758e-24
2.98545,0.0274802,-1.06498e-05,5.60152e-23
2.97904,0.0282171,-9.30684e-06,-2.37368e-23
2.97235,0.0288111,-7.48875e-06,-7.11359e-23
2.96538,0.0292935,-5.27104e-06,7.8933e-23
2.95812,0.0296884,-2.72511e-06,9.1434e-23
2.95056,0.0300143,8.7421e-08,-3.43529e-23
2.94268,0.0302852,3.11635e-06,-9.24863e-23
2.93448,0.0305119,6.3221e-06,-4.31138e-23
2.92595,0.0307027,9.67413e-06,1.13846e-23
2.91707,0.030864,1.31492e-05,3.91009e-23
2.90784,0.0310006,1.67299e-05,-1.62092e-25
2.89825,0.0311164,2.0403e-05,-2.17601e-23
2.88828,0.0312145,2.41588e-05,-2.17956e-23
2.87793,0.0312973,2.799e-05,-2.18369e-25
2.86719,0.0313667,3.18911e-05,-1.61634e-23
2.85604,0.0314243,3.58581e-05,-1.62015e-23
2.84447,0.0314713,3.98876e-05,5.98534e-23
2.83249,0.0315088,4.39771e-05,8.9363e-23
2.82007,0.0315376,4.81246e-05,-1.09838e-22
2.80721,0.0315585,5.2328e-05,-5.80532e-24
2.79389,0.031572,5.65855e-05,5.5763e-23
2.78012,0.0315787,6.08952e-05,-7.89555e-23
2.76589,0.031579,6.52551e-05,2.49069e-23
2.75118,0.0315731,6.96628e-05,2.3069e-23
2.73599,0.0315616,7.41155e-05,-2.47316e-23
2.72032,0.0315445,7.86101e-05,4.75898e-23
2.70416,0.0315222,8.31428e-05,2.51535e-23
2.6875,0.0314948,8.77092e-05,-8.83925e-23
2.67035,0.0314626,9.2304e-05,-2.21867e-23
2.6527,0.0314256,9.69211e-05,1.2984e-22
2.63455,0.0313841,0.000101553,-6.51644e-23
2.61589,0.0313382,0.000106192,-1.32792e-22
2.59674,0.0312879,0.000110828,2.15745e-22
2.57709,0.0312334,0.000115449,-3.86291e-23
2.55695,0.0311749,0.000120042,-8.65178e-23
2.53632,0.0311124,0.000124594,4.55196e-23
2.51521,0.031046,0.000129085,-8.80494e-23
2.49362,0.0309758,0.000133498,8.20621e-23
2.47156,0.030902,0.000137811,1.78184e-22
2.44905,0.0308245,0.000141998,-3.45147e-23
2.4261,0.0307436,0.000146032,-1.79835e-22
2.40272,0.0306593,0.000149884,8.84361e-23
2.37892,0.0305718,0.000153518,4.3725e-23
2.35472,0.030481,0.000156899,-3.87403e-23
2.33014,0.0303872,0.000159984,4.34678e-24
2.3052,0.0302904,0.00016273,-5.84994e-23
2.27992,0.0301907,0.000165088,5.69092e-25
2.25432,0.0300883,0.000167008,-1.08888e-22
2.22843,0.0299832,0.000168433,-1.29173e-23
2.20226,0.0298756,0.000169306,-6.86806e-25
2.17584,0.0297654,0.000169564,1.81566e-23
2.14921,0.0296529,0.000169143,3.35975e-22
2.12238,0.0295382,0.000167977,1.03449e-24
2.09539,0.0294212,0.000165996,-2.31325e-22
2.06826,0.0293021,0.00016313,1.30057e-22
2.04103,0.029181,0.000159309,6.65299e-24
2.01372,0.0290579,0.000154461,-1.36555e-22
1.98636,0.0289329,0.000148518,-1.42246e-22
1.95899,0.028806,0.000141412,-4.13649e-24
1.93163,0.0286774,0.000133077,4.4267e-22
1.90432,0.0285469,0.000123453,4.59048e-22
1.87709,0.0284147,0.000112484,-4.45063e-22
1.84995,0.0282808,0.000100118,-6.20681e-22
1.82296,0.0281452,8.63136e-05,2.64946e-22
1.79612,0.0280079,7.10334e-05,3.97874e-23
1.76948,0.0278688,5.42508e-05,-6.48824e-22
1.74306,0.0277281,3.59478e-05,1.32808e-22
1.71688,0.0275856,1.61169e-05,5.25778e-22
1.69097,0.0274414,-5.23908e-06,3.83623e-22
1.66535,0.0272954,-2.8106e-05,-7.30507e-22
1.64006,0.0271476,-5.24584e-05,-4.04384e-22
1.6151,0.026998,-7.82592e-05,1.12764e-21
1.5905,0.0268466,-0.00010546,-4.69758e-22
1.56629,0.0266932,-0.000134001,3.08465e-23
1.54247,0.0265379,-0.000163812,8.57991e-22
1.51906,0.0263807,-0.000194813,-8.18687e-22
1.49609,0.0262214,-0.000226914,4.9598e-22
1.47355,0.02606,-0.000260019,3.32136e-22
1.45147,0.0258965,-0.000294025,-7.79354e-22
1.42986,0.0257309,-0.000328828,-5.01132e-22
1.40872,0.025563,-0.000364323,-1.04329e-21
1.38806,0.0253929,-0.000400408,1.1007e-21
1.3679,0.0252204,-0.00043699,1.08663e-21
1.34822,0.0250455,-0.000473994,-2.54882e-21
1.32904,0.024868,-0.000511362,1.30209e-21
1.31036,0.0246878,-0.000549071,1.95789e-21
1.29218,0.0245047,-0.000587138,9.14203e-23
1.27451,0.0243182,-0.000625633,1.96668e-22
1.25732,0.0241279,-0.000664692,-1.35394e-21
1.24064,0.0239331,-0.000704523,8.38123e-22
1.22444,0.0237328,-0.000745411,5.6258e-23
1.20874,0.0235255,-0.000787711,-5.68303e-21
1.19351,0.0233094,-0.000831825,-6.75656e-22
1.17876,0.0230819,-0.000878154,1.99114e-21
1.16448,0.0228397,-0.000927047,-3.67018e-21
1.15066,0.0225787,-0.000978745,3.34776e-21
1.13729,0.0222939,-0.00103332,4.81401e-21
1.12437,0.0219796,-0.00109056,9.13193e-21
1.11188,0.0216294,-0.00114992,4.45365e-21
1.09981,0.0212358,-0.00121038,-4.86327e-21
1.08816,0.0207912,-0.00127052,1.45569e-21
1.07691,0.0202887,-0.00132802,-1.80536e-21
1.06606,0.0197215,-0.00137959,-7.72777e-21
1.05559,0.0190821,-0.00142161,-5.22973e-21
1.04549,0.0183661,-0.00145039,6.06118e-21
1.03576,0.0175743,-0.00146311,9.98817e-21
1.02638,0.01671,-0.00145767,-7.61557e-21
1.01734,0.0157784,-0.0014311,-1.08688e-20
1.00863,0.0147836,-0.00138025,-1.31192e-20
1.00025,0.0137307,-0.00130332,-4.4161e-21
0.992173,0.0126316,-0.00120015,3.10215e-20
0.984401,0.0115026,-0.00107281,-1.25671e-20
0.976921,0.0103586,-0.000924695,-3.46145e-20
0.969724,0.00921394,-0.000759087,1.18569e-20
0.962799,0.00808188,-0.000578249,2.81548e-20
0.95614,0.00697088,-0.000383153,-7.07585e-22
0.949735,0.00588631,-0.00017519,-2.49426e-21
0.943578,0.00483867,4.21403e-05,8.10749e-21
0.937659,0.00384136,0.000263117,-7.59445e-21
0.93197,0.00290526,0.00048184,-4.74821e-24
0.926504,0.00203685,0.000694736,9.65305e-25
0.921252,0.00123631,0.000900879,2.02318e-24
0.916208,0.000501723,0.00109986,0
0.911364,-0.000165467,0.00128979,-1.17336e-20
0.906712,-0.000762764,0.00146786,6.60066e-20
0.902247,-0.00128998,0.00163177,-6.38542e-21
0.897961,-0.00174825,0.00177955,-8.40744e-20
0.893848,-0.00213592,0.00190759,7.72785e-20
0.8899,-0.0024465,0.00200924,5.80109e-20
0.886114,-0.00266971,0.00207485,-4.19964e-20
0.882481,-0.00279341,0.00209313,-6.80433e-20
0.878997,-0.00280818,0.0020544,-7.4052e-20
0.875655,-0.00271302,0.00195439,1.47955e-21
0.87245,-0.00251742,0.00179597,1.39528e-19
0.869377,-0.00223706,0.00158657,-2.82047e-20
0.866434,-0.00188774,0.00133408,5.18987e-21
0.863613,-0.00148233,0.00104465,-5.81852e-21
0.86091,-0.00103013,0.000723109,-1.74727e-19
0.858318,-0.000536354,0.000374953,-2.17578e-21
0.855829,0,0,0
0.855829,0,0,0
