y,U_0,U_1,U_2
3.032,0.00315111,-1.96393e-07,4.15432e-24
3.02729,0.006727,-1.09618e-06,-1.44948e-23
3.02196,0.0106079,-3.17576e-06,-6.1589e-24
3.01608,0.0142198,-6.60743e-06,-5.28847e-24
3.00969,0.0171249,-1.12035e-05,-3.05319e-23
3.00286,0.0193348,-1.67848e-05,2.89363e-23
2.99559,0.0210349,-2.32908e-05,2.47303e-23
2.98792,0.0223732,-3.06423e-05,-4.65588e-23
2.97986,0.023446,-3.87274e-05,1.82247e-23
2.97139,0.0243177,-4.7427e-05,4.9217e-23
2.96254,0.025033,-5.66297e-05,-1.66307e-23
2.95328,0.0256246,-6.62398e-05,-1.71173e-23
2.94362,0.0261171,-7.6181e-05,-2.62188e-23
2.93353,0.0265295,-8.63964e-05,-3.75452e-24
2.92302,0.0268766,-9.68458e-05,2.11803e-23
2.91207,0.0271697,-0.000107503,-2.12845e-23
2.90067,0.027418,-0.000118354,-1.97863e-23
2.8888,0.0276285,-0.000129389,1.53443e-23
2.87646,0.027807,-0.000140609,1.59944e-23
2.86362,0.027958,-0.000152015,-2.7279e-23
2.85027,0.028085,-0.000163613,-1.99872e-24
2.8364,0.0281911,-0.000175412,4.81935e-23
2.822,0.0282785,-0.00018742,2.44589e-23
2.80705,0.0283493,-0.000199647,-2.00538e-23
2.79153,0.028405,-0.000212105,-2.04822e-23
2.77544,0.028447,-0.000224803,1.20274e-24
2.75876,0.0284763,-0.000237754,1.79605e-23
2.74147,0.0284938,-0.00025097,-1.61159e-23
2.72357,0.0285003,-0.00026446,1.35196e-23
2.70504,0.0284965,-0.000278238,4.64152e-23
2.68587,0.0284828,-0.000292315,-9.09893e-23
2.66605,0.0284597,-0.000306701,-3.35619e-24
2.64556,0.0284276,-0.000321408,3.03296e-23
2.62441,0.0283867,-0.000336447,-2.99414e-23
2.60258,0.0283374,-0.00035183,5.24935e-23
2.58007,0.0282799,-0.000367567,2.6821e-23
2.55686,0.0282142,-0.000383668,-7.63979e-23
2.53296,0.0281406,-0.000400145,-5.29263e-23
2.50835,0.0280592,-0.000417008,1.19486e-22
2.48305,0.02797,-0.000434267,4.8027e-23
2.45704,0.0278732,-0.000451934,-7.11618e-23
2.43032,0.0277687,-0.000470019,-4.74421e-23
2.40291,0.0276565,-0.000488533,-8.94078e-23
2.3748,0.0275367,-0.000507487,1.13969e-22
2.346,0.0274093,-0.000526892,9.24842e-23
2.31651,0.0272742,-0.000546761,-1.32091e-22
2.28636,0.0271313,-0.000567106,-4.72138e-23
2.25554,0.0269806,-0.00058794,4.29421e-23
2.22407,0.0268221,-0.000609277,8.91908e-23
2.19198,0.0266556,-0.000631133,3.79228e-25
2.15926,0.026481,-0.000653524,-4.37919e-23
2.12596,0.0262982,-0.000676467,4.37364e-23
2.09208,0.026107,-0.000699981,1.63318e-24
2.05765,0.0259074,-0.000724087,3.00727e-26
2.0227,0.025699,-0.000748807,1.09619e-24
1.98725,0.0254818,-0.000774163,-4.29972e-23
1.95134,0.0252554,-0.000800179,-4.39267e-23
1.915,0.0250197,-0.00082688,2.27155e-24
1.87826,0.0247743,-0.00085429,-2.57059e-24
1.84115,0.0245189,-0.000882434,-4.79446e-23
1.80371,0.0242532,-0.000911334,4.82253e-23
1.76599,0.0239768,-0.000941009,-4.99226e-23
1.72801,0.0236894,-0.000971472,-1.28362e-24
1.68983,0.0233905,-0.00100273,1.43386e-22
1.65148,0.0230797,-0.00103479,-1.49556e-22
1.613,0.0227565,-0.00106762,-4.72626e-23
1.57444,0.0224204,-0.00110121,-3.26896e-24
1.53585,0.0220711,-0.0011355,-1.30185e-24
1.49725,0.021708,-0.00117043,1.54916e-22
1.45871,0.0213308,-0.00120589,3.76535e-24
1.42026,0.0209392,-0.00124176,-1.14852e-22
1.38194,0.0205329,-0.00127789,-5.51454e-23
1.3438,0.0201119,-0.00131408,5.71738e-23
1.30588,0.0196762,-0.00135011,5.73005e-23
1.26823,0.0192262,-0.00138572,6.04986e-23
1.23087,0.0187624,-0.00142062,1.20451e-22
1.19386,0.0182856,-0.00145453,-2.07753e-24
1.15722,0.0177968,-0.00148705,-1.16776e-22
1.12099,0.0172959,-0.00151796,1.87688e-24
1.08522,0.0167793,-0.00154728,-7.05664e-23
1.04992,0.0162415,-0.00157509,7.01933e-23
1.01513,0.0156797,-0.00160127,6.21597e-23
0.980887,0.0150948,-0.00162522,5.78706e-24
0.947204,0.0144918,-0.00164592,7.46576e-23
0.91411,0.0138802,-0.00166191,-7.59167e-23
0.881628,0.0132733,-0.00167142,-7.61159e-23
0.849776,0.0126852,-0.00167274,5.53557e-23
0.818574,0.0121274,-0.00166491,-5.7744e-23
0.788036,0.0116044,-0.00164862,-1.17704e-22
0.758176,0.0111127,-0.0016255,-1.62284e-24
0.729005,0.0106455,-0.00159715,1.08678e-22
0.700532,0.0102004,-0.00156492,1.13375e-22
0.672765,0.00977751,-0.00152944,3.61188e-24
0.645708,0.00937666,-0.0014911,-1.06541e-22
0.619366,0.00899749,-0.00145033,-1.07661e-22
0.593738,0.00863938,-0.00140759,1.81545e-24
0.568826,0.00830154,-0.00136329,1.04742e-22
0.544627,0.00798311,-0.00131783,5.06551e-23
0.521139,0.00768314,-0.00127155,-7.65294e-23
0.498356,0.00740069,-0.00122479,-4.74351e-23
0.476272,0.00713477,-0.00117781,2.49675e-23
0.45488,0.00688441,-0.00113088,4.8048e-23
0.434171,0.00664864,-0.00108421,8.0281e-25
0.414137,0.00642647,-0.00103799,7.87487e-25
0.394767,0.00621697,-0.000992391,-2.42519e-24
0.376049,0.00601923,-0.000947538,-2.53191e-23
0.357972,0.00583238,-0.000903546,2.65211e-23
0.340523,0.00565561,-0.000860508,2.45083e-23
0.323689,0.00548815,-0.000818497,-3.7552e-25
0.307457,0.00532929,-0.000777571,2.4625e-25
0.291812,0.00517838,-0.000737774,-2.53158e-26
0.276741,0.0050348,-0.000699137,2.41041e-23
0.262229,0.00489799,-0.00066168,-2.58205e-23
0.24826,0.00476742,-0.000625417,-2.63774e-23
0.234821,0.00464262,-0.000590351,1.30769e-23
0.221896,0.00452314,-0.000556479,-4.34759e-25
0.20947,0.00440854,-0.000523795,-1.4306e-23
0.197529,0.00429843,-0.000492284,-4.22599e-25
0.186057,0.00419245,-0.000461932,6.07905e-27
0.17504,0.00409022,-0.000432718,-1.49395e-23
0.164463,0.0039914,-0.00040462,1.5217e-23
0.154312,0.00389568,-0.000377614,1.45997e-23
0.144573,0.00380272,-0.000351674,-3.20392e-23
0.135231,0.00371222,-0.000326774,6.70884e-25
0.126273,0.00362386,-0.000302885,1.71156e-23
0.117685,0.00353731,-0.00027998,1.89291e-23
0.109454,0.00345225,-0.00025803,9.12448e-24
0.101568,0.00336835,-0.000237007,-3.13865e-23
0.0940133,0.00328522,-0.000216885,-2.10696e-23
0.0867783,0.00320248,-0.000197635,2.50989e-23
0.0798512,0.00311967,-0.000179234,1.13628e-23
0.0732206,0.00303627,-0.000161656,1.79293e-24
0.0668756,0.00295165,-0.00014488,-1.17626e-24
0.060806,0.00286505,-0.000128886,-2.54165e-23
0.055002,0.00277547,-0.000113657,1.28085e-24
0.0494546,0.00268158,-9.91823e-05,1.08564e-23
0.0441557,0.00258154,-8.54557e-05,-3.2664e-25
0.0390981,0.00247269,-7.24813e-05,-1.76101e-23
0.0342763,0.002351,-6.02775e-05,5.9646e-24
0.0296863,0.00221013,-4.88833e-05,7.00681e-24
0.0253266,0.00203995,-3.83573e-05,-1.59007e-23
0.0211986,0.00182537,-2.87667e-05,3.12758e-23
0.0173078,0.0015512,-2.02326e-05,4.22216e-23
0.0136647,0.00122283,-1.30598e-05,-2.08481e-24
0.0102864,0.000882145,-7.59067e-06,-1.33421e-23
0.00719736,0.000578321,-3.83088e-06,4.70375e-24
0.00443049,0.000332866,-1.51887e-06,8.76706e-25
0.00202579,0.000144931,-3.6432e-07,-4.02393e-24
2.57848e-05,8.60458e-14,-2.16298e-16,-2.38902e-33
2.57848e-05,0,0,0
