/*--------------------------------*- C++ -*----------------------------------*\
  =========                 |
  \\      /  F ield         | OpenFOAM: The Open Source CFD Toolbox
   \\    /   O peration     | Website:  https://openfoam.org
    \\  /    A nd           | Version:  9
     \\/     M anipulation  |
\*---------------------------------------------------------------------------*/
FoamFile
{
    format      ascii;
    class       volVectorField;
    location    "0";
    object      C;
}
// * * * * * * * * * * * * * * * * * * * * * * * * * * * * * * * * * * * * * //

dimensions      [0 1 0 0 0 0 0];

internalField   nonuniform List<vector> 
12225
(
(-0.0198086 0.00015942 0)
(-0.0182574 0.00015942 0)
(-0.0167681 0.00015942 2.78877e-20)
(-0.0153384 0.00015942 0)
(-0.0139658 0.00015942 0)
(-0.012648 0.00015942 0)
(-0.0113829 0.00015942 0)
(-0.0101683 0.00015942 0)
(-0.00900222 0.00015942 1.23047e-20)
(-0.00788276 0.00015942 2.4818e-20)
(-0.00680802 0.00015942 0)
(-0.00577621 0.00015942 0)
(-0.00478564 0.00015942 -1.35982e-20)
(-0.00383464 0.00015942 -1.41641e-20)
(-0.00292163 0.00015942 0)
(-0.0020451 0.00015942 0)
(-0.0012036 0.00015942 0)
(-0.000395709 0.00015942 0)
(-0.0198086 0.000489703 -3.18662e-20)
(-0.0182574 0.000489703 0)
(-0.0167681 0.000489703 1.83843e-20)
(-0.0153384 0.000489703 0)
(-0.0139658 0.000489703 -3.81308e-20)
(-0.012648 0.000489703 0)
(-0.0113829 0.000489703 4.12426e-20)
(-0.0101683 0.000489703 0)
(-0.00900222 0.000489703 -2.30623e-20)
(-0.00788276 0.000489703 3.51862e-20)
(-0.00680802 0.000489703 0)
(-0.00577621 0.000489703 -1.36865e-20)
(-0.00478564 0.000489703 -6.64495e-20)
(-0.00383464 0.000489703 0)
(-0.00292163 0.000489703 0)
(-0.0020451 0.000489703 0)
(-0.0012036 0.000489703 1.49351e-20)
(-0.000395709 0.000489703 -2.48408e-20)
(-0.0198086 0.000843691 0)
(-0.0182574 0.000843691 3.17437e-20)
(-0.0167681 0.000843691 -1.7254e-20)
(-0.0153384 0.000843691 1.64035e-20)
(-0.0139658 0.000843691 0)
(-0.012648 0.000843691 1.9303e-20)
(-0.0113829 0.000843691 -9.26892e-21)
(-0.0101683 0.000843691 0)
(-0.00900222 0.000843691 0)
(-0.00788276 0.000843691 0)
(-0.00680802 0.000843691 0)
(-0.00577621 0.000843691 0)
(-0.00478564 0.000843691 0)
(-0.00383464 0.000843691 -1.23306e-20)
(-0.00292163 0.000843691 0)
(-0.0020451 0.000843691 0)
(-0.0012036 0.000843691 0)
(-0.000395709 0.000843691 0)
(-0.0198086 0.00122309 0)
(-0.0182574 0.00122309 0)
(-0.0167681 0.00122309 0)
(-0.0153384 0.00122309 0)
(-0.0139658 0.00122309 0)
(-0.012648 0.00122309 0)
(-0.0113829 0.00122309 0)
(-0.0101683 0.00122309 0)
(-0.00900222 0.00122309 0)
(-0.00788276 0.00122309 0)
(-0.00680802 0.00122309 0)
(-0.00577621 0.00122309 5.6031e-20)
(-0.00478564 0.00122309 0)
(-0.00383464 0.00122309 -1.15048e-20)
(-0.00292163 0.00122309 0)
(-0.0020451 0.00122309 0)
(-0.0012036 0.00122309 0)
(-0.000395709 0.00122309 0)
(-0.0198086 0.00162971 -3.86607e-20)
(-0.0182574 0.00162971 0)
(-0.0167681 0.00162971 0)
(-0.0153384 0.00162971 0)
(-0.0139658 0.00162971 0)
(-0.012648 0.00162971 0)
(-0.0113829 0.00162971 0)
(-0.0101683 0.00162971 -3.51253e-20)
(-0.00900222 0.00162971 0)
(-0.00788276 0.00162971 -3.79818e-20)
(-0.00680802 0.00162971 3.00013e-20)
(-0.00577621 0.00162971 0)
(-0.00478564 0.00162971 -2.21168e-20)
(-0.00383464 0.00162971 0)
(-0.00292163 0.00162971 0)
(-0.0020451 0.00162971 0)
(-0.0012036 0.00162971 0)
(-0.000395709 0.00162971 0)
(-0.0198086 0.00206552 0)
(-0.0182574 0.00206552 0)
(-0.0167681 0.00206552 0)
(-0.0153384 0.00206552 0)
(-0.0139658 0.00206552 0)
(-0.012648 0.00206552 0)
(-0.0113829 0.00206552 0)
(-0.0101683 0.00206552 2.50319e-20)
(-0.00900222 0.00206552 0)
(-0.00788276 0.00206552 0)
(-0.00680802 0.00206552 0)
(-0.00577621 0.00206552 -2.91995e-20)
(-0.00478564 0.00206552 -3.0352e-20)
(-0.00383464 0.00206552 4.15679e-20)
(-0.00292163 0.00206552 0)
(-0.0020451 0.00206552 0)
(-0.0012036 0.00206552 0)
(-0.000395709 0.00206552 0)
(-0.0198086 0.00253261 0)
(-0.0182574 0.00253261 0)
(-0.0167681 0.00253261 -2.53755e-20)
(-0.0153384 0.00253261 0)
(-0.0139658 0.00253261 0)
(-0.012648 0.00253261 0)
(-0.0113829 0.00253261 0)
(-0.0101683 0.00253261 -3.07733e-20)
(-0.00900222 0.00253261 0)
(-0.00788276 0.00253261 0)
(-0.00680802 0.00253261 0)
(-0.00577621 0.00253261 0)
(-0.00478564 0.00253261 0)
(-0.00383464 0.00253261 0)
(-0.00292163 0.00253261 0)
(-0.0020451 0.00253261 0)
(-0.0012036 0.00253261 0)
(-0.000395709 0.00253261 0)
(-0.0198086 0.00303323 0)
(-0.0182574 0.00303323 -1.06907e-20)
(-0.0167681 0.00303323 2.3777e-20)
(-0.0153384 0.00303323 0)
(-0.0139658 0.00303323 0)
(-0.012648 0.00303323 2.66749e-20)
(-0.0113829 0.00303323 0)
(-0.0101683 0.00303323 2.88133e-20)
(-0.00900222 0.00303323 2.28388e-20)
(-0.00788276 0.00303323 0)
(-0.00680802 0.00303323 0)
(-0.00577621 0.00303323 0)
(-0.00478564 0.00303323 1.82472e-20)
(-0.00383464 0.00303323 0)
(-0.00292163 0.00303323 0)
(-0.0020451 0.00303323 0)
(-0.0012036 0.00303323 0)
(-0.000395709 0.00303323 0)
(-0.0198086 0.00356977 0)
(-0.0182574 0.00356977 0)
(-0.0167681 0.00356977 0)
(-0.0153384 0.00356977 0)
(-0.0139658 0.00356977 2.40511e-20)
(-0.012648 0.00356977 -2.49894e-20)
(-0.0113829 0.00356977 2.59667e-20)
(-0.0101683 0.00356977 0)
(-0.00900222 0.00356977 0)
(-0.00788276 0.00356977 0)
(-0.00680802 0.00356977 0)
(-0.00577621 0.00356977 0)
(-0.00478564 0.00356977 4.05564e-20)
(-0.00383464 0.00356977 0)
(-0.00292163 0.00356977 0)
(-0.0020451 0.00356977 3.68111e-20)
(-0.0012036 0.00356977 0)
(-0.000395709 0.00356977 3.02346e-20)
(-0.0198086 0.00414483 0)
(-0.0182574 0.00414483 0)
(-0.0167681 0.00414483 0)
(-0.0153384 0.00414483 0)
(-0.0139658 0.00414483 0)
(-0.012648 0.00414483 1.09555e-20)
(-0.0113829 0.00414483 0)
(-0.0101683 0.00414483 0)
(-0.00900222 0.00414483 0)
(-0.00788276 0.00414483 0)
(-0.00680802 0.00414483 0)
(-0.00577621 0.00414483 -1.54977e-20)
(-0.00478564 0.00414483 0)
(-0.00383464 0.00414483 0)
(-0.00292163 0.00414483 0)
(-0.0020451 0.00414483 0)
(-0.0012036 0.00414483 0)
(-0.000395709 0.00414483 0)
(-0.0198086 0.00476116 0)
(-0.0182574 0.00476116 0)
(-0.0167681 0.00476116 0)
(-0.0153384 0.00476116 0)
(-0.0139658 0.00476116 3.09461e-20)
(-0.012648 0.00476116 1.02218e-20)
(-0.0113829 0.00476116 0)
(-0.0101683 0.00476116 -1.10903e-20)
(-0.00900222 0.00476116 0)
(-0.00788276 0.00476116 0)
(-0.00680802 0.00476116 1.25333e-20)
(-0.00577621 0.00476116 0)
(-0.00478564 0.00476116 2.87022e-20)
(-0.00383464 0.00476116 0)
(-0.00292163 0.00476116 0)
(-0.0020451 0.00476116 0)
(-0.0012036 0.00476116 0)
(-0.000395709 0.00476116 8.33661e-21)
(-0.0198086 0.00536704 0)
(-0.0182574 0.00536704 0)
(-0.0167681 0.00536704 4.16935e-20)
(-0.0153384 0.00536704 0)
(-0.0139658 0.00536704 0)
(-0.012648 0.00536704 -3.55684e-20)
(-0.0113829 0.00536704 0)
(-0.0101683 0.00536704 0)
(-0.00900222 0.00536704 0)
(-0.00788276 0.00536704 0)
(-0.00680802 0.00536704 -2.23885e-20)
(-0.00577621 0.00536704 0)
(-0.00478564 0.00536704 0)
(-0.00383464 0.00536704 0)
(-0.00292163 0.00536704 0)
(-0.0020451 0.00536704 0)
(-0.0012036 0.00536704 0)
(-0.000395709 0.00536704 0)
(-0.0198086 0.00600399 0)
(-0.0182574 0.00600399 0)
(-0.0167681 0.00600399 0)
(-0.0153384 0.00600399 0)
(-0.0139658 0.00600399 0)
(-0.012648 0.00600399 0)
(-0.0113829 0.00600399 0)
(-0.0101683 0.00600399 -2.17171e-20)
(-0.00900222 0.00600399 2.25582e-20)
(-0.00788276 0.00600399 5.78328e-20)
(-0.00680802 0.00600399 0)
(-0.00577621 0.00600399 1.18958e-20)
(-0.00478564 0.00600399 -1.23909e-20)
(-0.00383464 0.00600399 0)
(-0.00292163 0.00600399 0)
(-0.0020451 0.00600399 0)
(-0.0012036 0.00600399 0)
(-0.000395709 0.00600399 0)
(-0.0198086 0.00678044 0)
(-0.0182574 0.00678044 0)
(-0.0167681 0.00678044 0)
(-0.0153384 0.00678044 0)
(-0.0139658 0.00678044 0)
(-0.012648 0.00678044 -1.67874e-20)
(-0.0113829 0.00678044 0)
(-0.0101683 0.00678044 0)
(-0.00900222 0.00678044 0)
(-0.00788276 0.00678044 0)
(-0.00680802 0.00678044 0)
(-0.00577621 0.00678044 9.75854e-21)
(-0.00478564 0.00678044 0)
(-0.00383464 0.00678044 -4.38565e-20)
(-0.00292163 0.00678044 0)
(-0.0020451 0.00678044 0)
(-0.0012036 0.00678044 0)
(-0.000395709 0.00678044 0)
(-0.0198086 0.00772694 0)
(-0.0182574 0.00772694 -2.28049e-20)
(-0.0167681 0.00772694 0)
(-0.0153384 0.00772694 0)
(-0.0139658 0.00772694 -3.76114e-20)
(-0.012648 0.00772694 0)
(-0.0113829 0.00772694 2.76213e-20)
(-0.0101683 0.00772694 0)
(-0.00900222 0.00772694 3.69238e-20)
(-0.00788276 0.00772694 0)
(-0.00680802 0.00772694 9.19128e-21)
(-0.00577621 0.00772694 0)
(-0.00478564 0.00772694 -2.65211e-20)
(-0.00383464 0.00772694 2.75621e-20)
(-0.00292163 0.00772694 0)
(-0.0020451 0.00772694 2.9776e-20)
(-0.0012036 0.00772694 0)
(-0.000395709 0.00772694 2.19539e-20)
(-0.0198086 0.00888075 -1.67743e-20)
(-0.0182574 0.00888075 0)
(-0.0167681 0.00888075 0)
(-0.0153384 0.00888075 0)
(-0.0139658 0.00888075 -3.11245e-20)
(-0.012648 0.00888075 -1.02838e-20)
(-0.0113829 0.00888075 0)
(-0.0101683 0.00888075 0)
(-0.00900222 0.00888075 -3.63714e-20)
(-0.00788276 0.00888075 0)
(-0.00680802 0.00888075 -3.93337e-20)
(-0.00577621 0.00888075 -1.3134e-20)
(-0.00478564 0.00888075 0)
(-0.00383464 0.00888075 -3.00057e-20)
(-0.00292163 0.00888075 0)
(-0.0020451 0.00888075 0)
(-0.0012036 0.00888075 1.76099e-20)
(-0.000395709 0.00888075 1.82801e-20)
(-0.0198086 0.0102872 0)
(-0.0182574 0.0102872 -3.01722e-20)
(-0.0167681 0.0102872 0)
(-0.0153384 0.0102872 1.70568e-20)
(-0.0139658 0.0102872 -1.61982e-20)
(-0.012648 0.0102872 1.83781e-20)
(-0.0113829 0.0102872 3.66547e-20)
(-0.0101683 0.0102872 0)
(-0.00900222 0.0102872 0)
(-0.00788276 0.0102872 0)
(-0.00680802 0.0102872 0)
(-0.00577621 0.0102872 0)
(-0.00478564 0.0102872 3.51739e-20)
(-0.00383464 0.0102872 0)
(-0.00292163 0.0102872 0)
(-0.0020451 0.0102872 0)
(-0.0012036 0.0102872 2.79273e-20)
(-0.000395709 0.0102872 0)
(-0.0198086 0.0120018 -1.12882e-20)
(-0.0182574 0.0120018 3.67799e-20)
(-0.0167681 0.0120018 0)
(-0.0153384 0.0120018 0)
(-0.0139658 0.0120018 0)
(-0.012648 0.0120018 4.30286e-20)
(-0.0113829 0.0120018 -3.03397e-20)
(-0.0101683 0.0120018 0)
(-0.00900222 0.0120018 0)
(-0.00788276 0.0120018 0)
(-0.00680802 0.0120018 0)
(-0.00577621 0.0120018 0)
(-0.00478564 0.0120018 0)
(-0.00383464 0.0120018 -3.98638e-20)
(-0.00292163 0.0120018 0)
(-0.0020451 0.0120018 3.27186e-20)
(-0.0012036 0.0120018 0)
(-0.000395709 0.0120018 0)
(-0.0198086 0.0140918 -2.85334e-20)
(-0.0182574 0.0140918 0)
(-0.0167681 0.0140918 0)
(-0.0153384 0.0140918 -3.2901e-20)
(-0.0139658 0.0140918 0)
(-0.012648 0.0140918 2.42142e-20)
(-0.0113829 0.0140918 -1.33325e-20)
(-0.0101683 0.0140918 -2.61436e-20)
(-0.00900222 0.0140918 0)
(-0.00788276 0.0140918 2.82369e-20)
(-0.00680802 0.0140918 2.23885e-20)
(-0.00577621 0.0140918 0)
(-0.00478564 0.0140918 0)
(-0.00383464 0.0140918 -7.86661e-21)
(-0.00292163 0.0140918 0)
(-0.0020451 0.0140918 -1.707e-20)
(-0.0012036 0.0140918 0)
(-0.000395709 0.0140918 -2.92863e-20)
(-0.0198086 0.0160805 0)
(-0.0182574 0.0160805 0)
(-0.0167681 0.0160805 0)
(-0.0153384 0.0160805 0)
(-0.0139658 0.0160805 0)
(-0.012648 0.0160805 0)
(-0.0113829 0.0160805 0)
(-0.0101683 0.0160805 0)
(-0.00900222 0.0160805 0)
(-0.00788276 0.0160805 -2.88917e-20)
(-0.00680802 0.0160805 3.00314e-20)
(-0.00577621 0.0160805 -4.11228e-20)
(-0.00478564 0.0160805 0)
(-0.00383464 0.0160805 0)
(-0.00292163 0.0160805 0)
(-0.0020451 0.0160805 0)
(-0.0012036 0.0160805 0)
(-0.000395709 0.0160805 0)
(-0.0198086 0.0176528 0)
(-0.0182574 0.0176528 3.17757e-20)
(-0.0167681 0.0176528 0)
(-0.0153384 0.0176528 0)
(-0.0139658 0.0176528 0)
(-0.012648 0.0176528 -1.93219e-20)
(-0.0113829 0.0176528 2.93421e-20)
(-0.0101683 0.0176528 4.01654e-20)
(-0.00900222 0.0176528 0)
(-0.00788276 0.0176528 0)
(-0.00680802 0.0176528 -1.09224e-20)
(-0.00577621 0.0176528 0)
(-0.00478564 0.0176528 3.70572e-20)
(-0.00383464 0.0176528 -3.85367e-20)
(-0.00292163 0.0176528 0)
(-0.0020451 0.0176528 0)
(-0.0012036 0.0176528 2.94053e-20)
(-0.000395709 0.0176528 0)
(-0.0198086 0.0190215 3.41347e-20)
(-0.0182574 0.0190215 0)
(-0.0167681 0.0190215 2.86693e-20)
(-0.0153384 0.0190215 0)
(-0.0139658 0.0190215 0)
(-0.012648 0.0190215 0)
(-0.0113829 0.0190215 0)
(-0.0101683 0.0190215 0)
(-0.00900222 0.0190215 0)
(-0.00788276 0.0190215 0)
(-0.00680802 0.0190215 0)
(-0.00577621 0.0190215 0)
(-0.00478564 0.0190215 1.51184e-20)
(-0.00383464 0.0190215 1.56849e-20)
(-0.00292163 0.0190215 0)
(-0.0020451 0.0190215 0)
(-0.0012036 0.0190215 0)
(-0.000395709 0.0190215 0)
(-0.0198086 0.0202131 2.95121e-20)
(-0.0182574 0.0202131 0)
(-0.0167681 0.0202131 0)
(-0.0153384 0.0202131 0)
(-0.0139658 0.0202131 0)
(-0.012648 0.0202131 0)
(-0.0113829 0.0202131 0)
(-0.0101683 0.0202131 5.40232e-20)
(-0.00900222 0.0202131 -5.7652e-20)
(-0.00788276 0.0202131 1.53423e-20)
(-0.00680802 0.0202131 0)
(-0.00577621 0.0202131 -3.15299e-20)
(-0.00478564 0.0202131 0)
(-0.00383464 0.0202131 0)
(-0.00292163 0.0202131 -2.69538e-20)
(-0.0020451 0.0202131 0)
(-0.0012036 0.0202131 2.9116e-20)
(-0.000395709 0.0202131 0)
(-0.0198086 0.0212504 0)
(-0.0182574 0.0212504 0)
(-0.0167681 0.0212504 0)
(-0.0153384 0.0212504 0)
(-0.0139658 0.0212504 0)
(-0.012648 0.0212504 0)
(-0.0113829 0.0212504 0)
(-0.0101683 0.0212504 0)
(-0.00900222 0.0212504 0)
(-0.00788276 0.0212504 0)
(-0.00680802 0.0212504 0)
(-0.00577621 0.0212504 0)
(-0.00478564 0.0212504 0)
(-0.00383464 0.0212504 0)
(-0.00292163 0.0212504 0)
(-0.0020451 0.0212504 0)
(-0.0012036 0.0212504 0)
(-0.000395709 0.0212504 0)
(-0.0198086 0.0221534 0)
(-0.0182574 0.0221534 -1.46816e-20)
(-0.0167681 0.0221534 0)
(-0.0153384 0.0221534 0)
(-0.0139658 0.0221534 0)
(-0.012648 0.0221534 0)
(-0.0113829 0.0221534 0)
(-0.0101683 0.0221534 0)
(-0.00900222 0.0221534 0)
(-0.00788276 0.0221534 0)
(-0.00680802 0.0221534 0)
(-0.00577621 0.0221534 0)
(-0.00478564 0.0221534 0)
(-0.00383464 0.0221534 0)
(-0.00292163 0.0221534 0)
(-0.0020451 0.0221534 0)
(-0.0012036 0.0221534 2.57937e-20)
(-0.000395709 0.0221534 0)
(-0.0198086 0.0229396 0)
(-0.0182574 0.0229396 0)
(-0.0167681 0.0229396 0)
(-0.0153384 0.0229396 -2.61371e-20)
(-0.0139658 0.0229396 0)
(-0.012648 0.0229396 -3.71379e-20)
(-0.0113829 0.0229396 0)
(-0.0101683 0.0229396 0)
(-0.00900222 0.0229396 0)
(-0.00788276 0.0229396 0)
(-0.00680802 0.0229396 4.51956e-20)
(-0.00577621 0.0229396 2.42598e-20)
(-0.00478564 0.0229396 0)
(-0.00383464 0.0229396 -3.85367e-20)
(-0.00292163 0.0229396 0)
(-0.0020451 0.0229396 0)
(-0.0012036 0.0229396 0)
(-0.000395709 0.0229396 0)
(-0.0198086 0.0236239 3.41347e-20)
(-0.0182574 0.0236239 3.62768e-20)
(-0.0167681 0.0236239 -9.0545e-21)
(-0.0153384 0.0236239 0)
(-0.0139658 0.0236239 0)
(-0.012648 0.0236239 0)
(-0.0113829 0.0236239 3.34813e-20)
(-0.0101683 0.0236239 -3.48119e-20)
(-0.00900222 0.0236239 0)
(-0.00788276 0.0236239 -1.20453e-20)
(-0.00680802 0.0236239 0)
(-0.00577621 0.0236239 -2.76433e-20)
(-0.00478564 0.0236239 1.51184e-20)
(-0.00383464 0.0236239 1.56849e-20)
(-0.00292163 0.0236239 -1.6275e-20)
(-0.0020451 0.0236239 0)
(-0.0012036 0.0236239 0)
(-0.000395709 0.0236239 0)
(-0.0198086 0.0242197 -1.99257e-20)
(-0.0182574 0.0242197 3.14618e-20)
(-0.0167681 0.0242197 0)
(-0.0153384 0.0242197 0)
(-0.0139658 0.0242197 0)
(-0.012648 0.0242197 0)
(-0.0113829 0.0242197 0)
(-0.0101683 0.0242197 0)
(-0.00900222 0.0242197 0)
(-0.00788276 0.0242197 -1.53423e-20)
(-0.00680802 0.0242197 -6.06606e-20)
(-0.00577621 0.0242197 3.15299e-20)
(-0.00478564 0.0242197 0)
(-0.00383464 0.0242197 0)
(-0.00292163 0.0242197 0)
(-0.0020451 0.0242197 -5.60257e-20)
(-0.0012036 0.0242197 0)
(-0.000395709 0.0242197 0)
(-0.0198086 0.0247384 0)
(-0.0182574 0.0247384 0)
(-0.0167681 0.0247384 0)
(-0.0153384 0.0247384 0)
(-0.0139658 0.0247384 0)
(-0.012648 0.0247384 1.3502e-20)
(-0.0113829 0.0247384 -2.96337e-20)
(-0.0101683 0.0247384 0)
(-0.00900222 0.0247384 0)
(-0.00788276 0.0247384 0)
(-0.00680802 0.0247384 0)
(-0.00577621 0.0247384 -2.73723e-20)
(-0.00478564 0.0247384 3.74297e-20)
(-0.00383464 0.0247384 0)
(-0.00292163 0.0247384 9.74402e-21)
(-0.0020451 0.0247384 0)
(-0.0012036 0.0247384 0)
(-0.000395709 0.0247384 0)
(-0.0198086 0.0251899 0)
(-0.0182574 0.0251899 0)
(-0.0167681 0.0251899 0)
(-0.0153384 0.0251899 0)
(-0.0139658 0.0251899 0)
(-0.012648 0.0251899 0)
(-0.0113829 0.0251899 0)
(-0.0101683 0.0251899 3.51609e-20)
(-0.00900222 0.0251899 3.65615e-20)
(-0.00788276 0.0251899 0)
(-0.00680802 0.0251899 -9.50853e-21)
(-0.00577621 0.0251899 0)
(-0.00478564 0.0251899 0)
(-0.00383464 0.0251899 -1.22516e-20)
(-0.00292163 0.0251899 0)
(-0.0020451 0.0251899 0)
(-0.0012036 0.0251899 0)
(-0.000395709 0.0251899 0)
(0.000264175 -0.0248357 0)
(0.000794616 -0.0248359 0)
(0.00132918 -0.0248362 0)
(0.0018679 -0.0248364 0)
(0.00241081 -0.0248367 -1.44562e-20)
(0.00295794 -0.0248369 2.796e-20)
(0.00350933 -0.0248372 -5.55243e-20)
(0.004065 -0.0248374 2.75659e-20)
(0.00462499 -0.0248377 0)
(0.00518933 -0.0248379 -4.03903e-20)
(0.00575807 -0.0248382 0)
(0.00633122 -0.0248384 0)
(0.00690883 -0.0248387 0)
(0.00749093 -0.024839 0)
(0.00807756 -0.0248392 3.89744e-20)
(0.00866875 -0.0248395 2.60496e-20)
(0.00926453 -0.0248398 -3.84234e-20)
(0.00986495 -0.0248401 2.56851e-20)
(0.01047 -0.0248403 0)
(0.0110798 -0.0248406 -2.53262e-20)
(0.0116944 -0.0248409 0)
(0.0123137 -0.0248412 0)
(0.0129378 -0.0248415 -2.47983e-20)
(0.0135668 -0.0248418 -2.46251e-20)
(0.0142006 -0.024842 0)
(0.0148394 -0.0248423 2.42827e-20)
(0.0154832 -0.0248426 0)
(0.0161319 -0.0248429 0)
(0.0167857 -0.0248432 0)
(0.0174446 -0.0248435 0)
(0.0181087 -0.0248438 -1.13483e-20)
(0.0187778 -0.0248441 0)
(0.0194522 -0.0248444 0)
(0.0201318 -0.0248447 6.81431e-20)
(0.0208167 -0.0248451 3.38331e-20)
(0.021507 -0.0248454 1.09478e-20)
(0.0222026 -0.0248457 0)
(0.0229036 -0.024846 3.3129e-20)
(0.02361 -0.0248463 0)
(0.024322 -0.0248467 -1.06385e-20)
(0.0250395 -0.024847 0)
(0.0257625 -0.0248473 0)
(0.0264912 -0.0248477 -4.24045e-20)
(0.0272256 -0.024848 0)
(0.0279656 -0.0248483 -3.15491e-20)
(0.0287114 -0.0248487 0)
(0.029463 -0.024849 -4.12335e-20)
(0.0302205 -0.0248494 6.17962e-20)
(0.0309838 -0.0248497 2.07074e-20)
(0.0317531 -0.0248501 -3.04725e-20)
(0.0325284 -0.0248504 0)
(0.0333097 -0.0248508 0)
(0.034097 -0.0248511 0)
(0.0348905 -0.0248515 3.92706e-20)
(0.0356902 -0.0248519 0)
(0.036496 -0.0248522 -9.49406e-21)
(0.0373082 -0.0248526 0)
(0.0381266 -0.024853 0)
(0.0389514 -0.0248533 3.79333e-20)
(0.0397826 -0.0248537 6.61145e-20)
(0.0406203 -0.0248541 0)
(0.0414645 -0.0248545 0)
(0.0423153 -0.0248549 0)
(0.0431727 -0.0248553 0)
(0.0440367 -0.0248557 -2.74857e-20)
(0.0449075 -0.0248561 0)
(0.045785 -0.0248565 0)
(0.0466693 -0.0248569 0)
(0.0475606 -0.0248573 0)
(0.0484587 -0.0248577 2.65661e-20)
(0.0493639 -0.0248581 0)
(0.050276 -0.0248585 0)
(0.0511953 -0.0248589 -1.68523e-20)
(0.0521217 -0.0248594 1.74885e-20)
(0.0530554 -0.0248598 3.39918e-20)
(0.0539962 -0.0248602 0)
(0.0549444 -0.0248606 -3.35333e-20)
(0.0559 -0.0248611 0)
(0.056863 -0.0248615 3.3082e-20)
(0.0578335 -0.024862 -1.68061e-20)
(0.0588115 -0.0248624 -3.26378e-20)
(0.0597971 -0.0248629 0)
(0.0607904 -0.0248633 0)
(0.0617914 -0.0248638 0)
(0.0628002 -0.0248642 0)
(0.0638169 -0.0248647 0)
(0.0648414 -0.0248652 0)
(0.0658739 -0.0248656 1.59454e-20)
(0.0669145 -0.0248661 0)
(0.0679631 -0.0248666 0)
(0.0690199 -0.0248671 0)
(0.0700849 -0.0248676 0)
(0.0711581 -0.0248681 0)
(0.0722398 -0.0248685 0)
(0.0733298 -0.024869 0)
(0.0744283 -0.0248695 0)
(0.0755354 -0.0248701 -5.1512e-20)
(0.076651 -0.0248706 -7.09535e-21)
(0.0777753 -0.0248711 0)
(0.0789084 -0.0248716 2.8753e-20)
(0.0800503 -0.0248721 -2.85644e-20)
(0.081201 -0.0248726 2.83773e-20)
(0.0823607 -0.0248732 0)
(0.0835295 -0.0248737 -1.36272e-20)
(0.0847073 -0.0248742 0)
(0.0858942 -0.0248748 0)
(0.0870904 -0.0248753 0)
(0.0882959 -0.0248759 6.78386e-20)
(0.0895108 -0.0248764 0)
(0.0907351 -0.024877 0)
(0.0919689 -0.0248776 0)
(0.0932123 -0.0248781 1.29171e-20)
(0.0944654 -0.0248787 -1.35848e-20)
(0.0957282 -0.0248793 -3.89931e-20)
(0.0970009 -0.0248799 -1.34157e-20)
(0.0982834 -0.0248804 0)
(0.0995759 -0.024881 -1.2496e-20)
(0.100879 -0.0248816 0)
(0.102191 -0.0248822 -1.23323e-20)
(0.103514 -0.0248828 2.52563e-20)
(0.104847 -0.0248834 4.94385e-20)
(0.106191 -0.024884 0)
(0.107545 -0.0248847 0)
(0.108909 -0.0248853 -3.65572e-20)
(0.110284 -0.0248859 0)
(0.11167 -0.0248866 2.43134e-20)
(0.113067 -0.0248872 2.41608e-20)
(0.114474 -0.0248878 0)
(0.115893 -0.0248885 -1.15529e-20)
(0.117322 -0.0248891 0)
(0.118763 -0.0248898 0)
(0.120214 -0.0248905 2.3416e-20)
(0.121677 -0.0248911 1.12586e-20)
(0.123152 -0.0248918 -2.31265e-20)
(0.124638 -0.0248925 0)
(0.126135 -0.0248932 0)
(0.127644 -0.0248938 0)
(0.129165 -0.0248945 3.34662e-20)
(0.130698 -0.0248952 1.08352e-20)
(0.132242 -0.0248959 -1.07666e-20)
(0.133799 -0.0248967 2.21507e-20)
(0.135367 -0.0248974 0)
(0.136948 -0.0248981 0)
(0.138541 -0.0248988 0)
(0.140147 -0.0248996 0)
(0.141765 -0.0249003 -5.33428e-20)
(0.143395 -0.024901 3.16611e-20)
(0.145038 -0.0249018 3.14689e-20)
(0.146694 -0.0249025 -2.11033e-20)
(0.148363 -0.0249033 3.10892e-20)
(0.150045 -0.0249041 0)
(0.15174 -0.0249049 0)
(0.153448 -0.0249056 -3.05318e-20)
(0.15517 -0.0249064 0)
(0.156904 -0.0249072 3.0168e-20)
(0.158653 -0.024908 2.02435e-20)
(0.160415 -0.0249088 -2.01248e-20)
(0.16219 -0.0249096 9.62682e-21)
(0.16398 -0.0249104 0)
(0.165783 -0.0249113 0)
(0.1676 -0.0249121 -9.45336e-21)
(0.169432 -0.0249129 0)
(0.171277 -0.0249138 0)
(0.173137 -0.0249146 0)
(0.175012 -0.0249155 0)
(0.176901 -0.0249163 0)
(0.178805 -0.0249172 0)
(0.180723 -0.0249181 0)
(0.182657 -0.024919 0)
(0.184605 -0.0249199 0)
(0.186569 -0.0249208 0)
(0.188548 -0.0249217 0)
(0.190542 -0.0249226 -3.59673e-20)
(0.192552 -0.0249235 0)
(0.194577 -0.0249244 0)
(0.196618 -0.0249253 0)
(0.198675 -0.0249263 -2.6559e-20)
(0.200748 -0.0249272 -1.78587e-20)
(0.202837 -0.0249282 6.9537e-20)
(0.204943 -0.0249291 5.22393e-20)
(0.000264175 -0.023707 0)
(0.000794616 -0.0237078 0)
(0.00132918 -0.0237085 0)
(0.0018679 -0.0237092 0)
(0.00241081 -0.02371 0)
(0.00295794 -0.0237107 -2.87129e-20)
(0.00350933 -0.0237115 0)
(0.004065 -0.0237122 0)
(0.00462499 -0.023713 -4.1433e-20)
(0.00518933 -0.0237138 0)
(0.00575807 -0.0237146 -1.31165e-20)
(0.00633122 -0.0237153 -1.30214e-20)
(0.00690883 -0.0237161 0)
(0.00749093 -0.0237169 1.28334e-20)
(0.00807756 -0.0237177 -1.42464e-20)
(0.00866875 -0.0237185 0)
(0.00926453 -0.0237194 3.91763e-20)
(0.00986495 -0.0237202 0)
(0.01047 -0.023721 2.62579e-20)
(0.0110798 -0.0237218 0)
(0.0116944 -0.0237227 -2.59018e-20)
(0.0123137 -0.0237235 -1.21099e-20)
(0.0129378 -0.0237244 -2.55513e-20)
(0.0135668 -0.0237253 -1.1936e-20)
(0.0142006 -0.0237261 2.52062e-20)
(0.0148394 -0.023727 2.50356e-20)
(0.0154832 -0.0237279 0)
(0.0161319 -0.0237288 -2.46985e-20)
(0.0167857 -0.0237297 -2.45319e-20)
(0.0174446 -0.0237306 0)
(0.0181087 -0.0237315 1.28543e-20)
(0.0187778 -0.0237324 2.40399e-20)
(0.0194522 -0.0237333 0)
(0.0201318 -0.0237342 -1.11061e-20)
(0.0208167 -0.0237352 -2.35594e-20)
(0.021507 -0.0237361 -3.43495e-20)
(0.0222026 -0.0237371 0)
(0.0229036 -0.023738 -3.38819e-20)
(0.02361 -0.023739 1.07149e-20)
(0.024322 -0.02374 0)
(0.0250395 -0.023741 0)
(0.0257625 -0.023742 0)
(0.0264912 -0.023743 0)
(0.0272256 -0.023744 -3.25224e-20)
(0.0279656 -0.023745 -3.2302e-20)
(0.0287114 -0.023746 0)
(0.029463 -0.023747 4.19864e-20)
(0.0302205 -0.0237481 0)
(0.0309838 -0.0237491 -9.97711e-21)
(0.0317531 -0.0237502 0)
(0.0325284 -0.0237512 0)
(0.0333097 -0.0237523 -3.08065e-20)
(0.034097 -0.0237534 9.69783e-21)
(0.0348905 -0.0237545 3.03942e-20)
(0.0356902 -0.0237556 0)
(0.036496 -0.0237567 0)
(0.0373082 -0.0237578 2.97877e-20)
(0.0381266 -0.0237589 0)
(0.0389514 -0.02376 0)
(0.0397826 -0.0237612 0)
(0.0406203 -0.0237623 9.16496e-21)
(0.0414645 -0.0237635 0)
(0.0423153 -0.0237646 2.86168e-20)
(0.0431727 -0.0237658 3.74006e-20)
(0.0440367 -0.023767 1.93278e-20)
(0.0449075 -0.0237682 2.80518e-20)
(0.045785 -0.0237694 0)
(0.0466693 -0.0237706 -1.7451e-20)
(0.0475606 -0.0237718 -1.73293e-20)
(0.0484587 -0.0237731 0)
(0.0493639 -0.0237743 1.70889e-20)
(0.050276 -0.0237755 0)
(0.0511953 -0.0237768 0)
(0.0521217 -0.0237781 -1.67353e-20)
(0.0530554 -0.0237794 0)
(0.0539962 -0.0237806 -3.45146e-20)
(0.0549444 -0.0237819 3.42862e-20)
(0.0559 -0.0237833 0)
(0.056863 -0.0237846 0)
(0.0578335 -0.0237859 -1.7559e-20)
(0.0588115 -0.0237872 -1.74484e-20)
(0.0597971 -0.0237886 0)
(0.0607904 -0.02379 0)
(0.0617914 -0.0237913 1.71218e-20)
(0.0628002 -0.0237927 3.25232e-20)
(0.0638169 -0.0237941 0)
(0.0648414 -0.0237955 0)
(0.0658739 -0.0237969 0)
(0.0669145 -0.0237983 -3.16829e-20)
(0.0679631 -0.0237998 0)
(0.0690199 -0.0238012 0)
(0.0700849 -0.0238027 0)
(0.0711581 -0.0238042 0)
(0.0722398 -0.0238056 -1.60879e-20)
(0.0733298 -0.0238071 0)
(0.0744283 -0.0238086 0)
(0.0755354 -0.0238102 0)
(0.076651 -0.0238117 0)
(0.0777753 -0.0238132 0)
(0.0789084 -0.0238148 2.95059e-20)
(0.0800503 -0.0238163 1.39056e-20)
(0.081201 -0.0238179 2.91303e-20)
(0.0823607 -0.0238195 0)
(0.0835295 -0.0238211 0)
(0.0847073 -0.0238227 -2.8578e-20)
(0.0858942 -0.0238243 4.18423e-20)
(0.0870904 -0.023826 1.33555e-20)
(0.0882959 -0.0238276 -1.47726e-20)
(0.0895108 -0.0238293 0)
(0.0907351 -0.023831 -2.76869e-20)
(0.0919689 -0.0238327 0)
(0.0932123 -0.0238344 0)
(0.0944654 -0.0238361 0)
(0.0957282 -0.0238378 3.9746e-20)
(0.0970009 -0.0238396 -2.6831e-20)
(0.0982834 -0.0238413 -2.6664e-20)
(0.0995759 -0.0238431 -2.64983e-20)
(0.100879 -0.0238449 2.63339e-20)
(0.102191 -0.0238467 -1.38386e-20)
(0.103514 -0.0238485 -2.60092e-20)
(0.104847 -0.0238503 0)
(0.106191 -0.0238521 0)
(0.107545 -0.023854 0)
(0.108909 -0.0238559 -3.73102e-20)
(0.110284 -0.0238578 -1.33633e-20)
(0.11167 -0.0238597 -1.32863e-20)
(0.113067 -0.0238616 0)
(0.114474 -0.0238635 1.1628e-20)
(0.115893 -0.0238654 0)
(0.117322 -0.0238674 0)
(0.118763 -0.0238694 -3.57199e-20)
(0.120214 -0.0238714 0)
(0.121677 -0.0238734 0)
(0.123152 -0.0238754 -1.26929e-20)
(0.124638 -0.0238774 1.11151e-20)
(0.126135 -0.0238795 5.82339e-20)
(0.127644 -0.0238815 0)
(0.129165 -0.0238836 2.33148e-20)
(0.130698 -0.0238857 -3.40118e-20)
(0.132242 -0.0238878 -2.30395e-20)
(0.133799 -0.02389 0)
(0.135367 -0.0238921 3.34e-20)
(0.136948 -0.0238943 0)
(0.138541 -0.0238965 0)
(0.140147 -0.0238987 0)
(0.141765 -0.0239009 1.03672e-20)
(0.143395 -0.0239031 7.51306e-20)
(0.145038 -0.0239054 -3.22218e-20)
(0.146694 -0.0239076 3.20312e-20)
(0.148363 -0.0239099 2.17302e-20)
(0.150045 -0.0239122 -1.00495e-20)
(0.15174 -0.0239146 -2.14814e-20)
(0.153448 -0.0239169 0)
(0.15517 -0.0239193 9.86522e-21)
(0.156904 -0.0239216 0)
(0.158653 -0.023924 -2.09964e-20)
(0.160415 -0.0239264 3.05633e-20)
(0.16219 -0.0239289 -9.62682e-21)
(0.16398 -0.0239313 0)
(0.165783 -0.0239338 -3.95491e-20)
(0.1676 -0.0239363 0)
(0.169432 -0.0239388 -6.87886e-20)
(0.171277 -0.0239413 0)
(0.173137 -0.0239439 2.93595e-20)
(0.175012 -0.0239464 -1.07354e-20)
(0.176901 -0.023949 0)
(0.178805 -0.0239516 -3.79855e-20)
(0.180723 -0.0239543 0)
(0.182657 -0.0239569 1.95313e-20)
(0.184605 -0.0239596 0)
(0.186569 -0.0239623 0)
(0.188548 -0.023965 -2.80714e-20)
(0.190542 -0.0239677 0)
(0.192552 -0.0239705 0)
(0.194577 -0.0239732 -1.89099e-20)
(0.196618 -0.023976 8.65153e-21)
(0.198675 -0.0239789 -8.60181e-21)
(0.200748 -0.0239817 1.86116e-20)
(0.202837 -0.0239846 0)
(0.204943 -0.0239874 4.37833e-20)
(0.000264175 -0.0225784 2.89724e-20)
(0.000794616 -0.0225796 2.95197e-20)
(0.00132918 -0.0225808 0)
(0.0018679 -0.022582 0)
(0.00241081 -0.0225833 0)
(0.00295794 -0.0225845 -2.87129e-20)
(0.00350933 -0.0225858 0)
(0.004065 -0.0225871 0)
(0.00462499 -0.0225883 0)
(0.00518933 -0.0225896 5.58616e-20)
(0.00575807 -0.0225909 -2.7739e-20)
(0.00633122 -0.0225922 -4.05702e-20)
(0.00690883 -0.0225936 -1.2927e-20)
(0.00749093 -0.0225949 -4.00061e-20)
(0.00807756 -0.0225962 0)
(0.00866875 -0.0225976 -5.3605e-20)
(0.00926453 -0.0225989 0)
(0.00986495 -0.0226003 -1.2466e-20)
(0.01047 -0.0226017 -2.62579e-20)
(0.0110798 -0.0226031 0)
(0.0116944 -0.0226045 2.59018e-20)
(0.0123137 -0.0226059 1.21099e-20)
(0.0129378 -0.0226073 0)
(0.0135668 -0.0226088 0)
(0.0142006 -0.0226102 0)
(0.0148394 -0.0226117 1.32708e-20)
(0.0154832 -0.0226131 -1.16802e-20)
(0.0161319 -0.0226146 0)
(0.0167857 -0.0226161 -2.45319e-20)
(0.0174446 -0.0226176 2.43667e-20)
(0.0181087 -0.0226191 -5.97536e-20)
(0.0187778 -0.0226207 0)
(0.0194522 -0.0226222 3.50647e-20)
(0.0201318 -0.0226237 3.48245e-20)
(0.0208167 -0.0226253 0)
(0.021507 -0.0226269 0)
(0.0222026 -0.0226285 0)
(0.0229036 -0.0226301 1.0792e-20)
(0.02361 -0.0226317 0)
(0.024322 -0.0226333 -1.21446e-20)
(0.0250395 -0.022635 -3.31942e-20)
(0.0257625 -0.0226366 0)
(0.0264912 -0.0226383 3.27446e-20)
(0.0272256 -0.0226399 0)
(0.0279656 -0.0226416 0)
(0.0287114 -0.0226433 0)
(0.029463 -0.0226451 -6.37326e-20)
(0.0302205 -0.0226468 0)
(0.0309838 -0.0226485 0)
(0.0317531 -0.0226503 0)
(0.0325284 -0.0226521 9.83637e-21)
(0.0333097 -0.0226538 -3.08065e-20)
(0.034097 -0.0226556 0)
(0.0348905 -0.0226574 -9.62937e-21)
(0.0356902 -0.0226593 2.0629e-20)
(0.036496 -0.0226611 0)
(0.0373082 -0.022663 0)
(0.0381266 -0.0226648 0)
(0.0389514 -0.0226667 0)
(0.0397826 -0.0226686 -2.91953e-20)
(0.0406203 -0.0226705 9.16496e-21)
(0.0414645 -0.0226725 0)
(0.0423153 -0.0226744 -9.0369e-21)
(0.0431727 -0.0226764 -1.94533e-20)
(0.0440367 -0.0226783 -1.93278e-20)
(0.0449075 -0.0226803 0)
(0.045785 -0.0226823 0)
(0.0466693 -0.0226843 0)
(0.0475606 -0.0226864 0)
(0.0484587 -0.0226884 2.7319e-20)
(0.0493639 -0.0226905 0)
(0.050276 -0.0226926 -2.69613e-20)
(0.0511953 -0.0226947 2.67845e-20)
(0.0521217 -0.0226968 1.67353e-20)
(0.0530554 -0.0226989 1.66193e-20)
(0.0539962 -0.0227011 0)
(0.0549444 -0.0227032 0)
(0.0559 -0.0227054 8.13839e-21)
(0.056863 -0.0227076 0)
(0.0578335 -0.0227098 0)
(0.0588115 -0.0227121 0)
(0.0597971 -0.0227143 -1.73387e-20)
(0.0607904 -0.0227166 0)
(0.0617914 -0.0227189 -3.27375e-20)
(0.0628002 -0.0227212 -5.72922e-20)
(0.0638169 -0.0227235 1.69084e-20)
(0.0648414 -0.0227258 0)
(0.0658739 -0.0227282 2.42944e-20)
(0.0669145 -0.0227306 -3.16829e-20)
(0.0679631 -0.022733 0)
(0.0690199 -0.0227354 0)
(0.0700849 -0.0227378 -3.10701e-20)
(0.0711581 -0.0227403 -3.0869e-20)
(0.0722398 -0.0227427 0)
(0.0733298 -0.0227452 3.77131e-20)
(0.0744283 -0.0227477 0)
(0.0755354 -0.0227503 0)