# vtk DataFile Version 2.0
track0
ASCII
DATASET POLYDATA
POINTS 12040 float
-0.0205 0.001 1e-05
-0.02052 0.000999985 1e-05
-0.02054 0.000999974 1e-05
-0.02056 0.000999965 1e-05
-0.02058 0.000999959 1e-05
-0.0206 0.000999956 1e-05
-0.0205 0.00367778 1e-05
-0.02052 0.00367778 1e-05
-0.02054 0.00367777 1e-05
-0.02056 0.00367777 1e-05
-0.02058 0.00367777 1e-05
-0.0206 0.00367777 1e-05
-0.0205 0.00635556 1e-05
-0.02052 0.00635555 1e-05
-0.02054 0.00635555 1e-05
-0.02056 0.00635555 1e-05
-0.02058 0.00635555 1e-05
-0.0206 0.00635555 1e-05
-0.0205 0.00903333 1e-05
-0.02052 0.00903333 1e-05
-0.02054 0.00903333 1e-05
-0.02056 0.00903333 1e-05
-0.02058 0.00903333 1e-05
-0.0206 0.00903333 1e-05
-0.0205 0.0117111 1e-05
-0.02052 0.0117111 1e-05
-0.02054 0.0117111 1e-05
-0.02056 0.0117111 1e-05
-0.02058 0.0117111 1e-05
-0.0206 0.0117111 1e-05
-0.0205 0.0143889 1e-05
-0.02052 0.0143889 1e-05
-0.02054 0.0143889 1e-05
-0.02056 0.0143889 1e-05
-0.02058 0.0143889 1e-05
-0.0206 0.0143889 1e-05
-0.0205 0.0170667 1e-05
-0.02052 0.0170667 1e-05
-0.02054 0.0170667 1e-05
-0.02056 0.0170667 1e-05
-0.02058 0.0170667 1e-05
-0.0206 0.0170667 1e-05
-0.0205 0.0197444 1e-05
-0.02052 0.0197444 1e-05
-0.02054 0.0197444 1e-05
-0.02056 0.0197444 1e-05
-0.02058 0.0197444 1e-05
-0.0206 0.0197444 1e-05
-0.0205 0.0224222 1e-05
-0.02052 0.0224222 1e-05
-0.02054 0.0224222 1e-05
-0.02056 0.0224222 1e-05
-0.02058 0.0224222 1e-05
-0.0206 0.0224222 1e-05
-0.0205 0.0251 1e-05
-0.02052 0.0250998 1e-05
-0.02054 0.0250997 1e-05
-0.02056 0.0250995 1e-05
-0.02058 0.0250995 1e-05
-0.0206 0.0250994 1e-05
-0.0205 0.001 1e-05
-0.0202034 0.00100022 1e-05
-0.0199069 0.00100067 1e-05
-0.0196103 0.00100133 1e-05
-0.0193137 0.00100219 1e-05
-0.0190172 0.00100326 1e-05
-0.0187132 0.00100467 1e-05
-0.0184093 0.00100589 1e-05
-0.0181054 0.00100711 1e-05
-0.0178015 0.00100832 1e-05
-0.0174976 0.00100954 1e-05
-0.0172058 0.00101083 1e-05
-0.016914 0.00101193 1e-05
-0.0166222 0.00101303 1e-05
-0.0163305 0.00101413 1e-05
-0.0160387 0.00101523 1e-05
-0.0157586 0.00101637 1e-05
-0.0154784 0.00101745 1e-05
-0.0151983 0.00101856 1e-05
-0.0149182 0.00101971 1e-05
-0.0146381 0.0010209 1e-05
-0.0143744 0.00102209 1e-05
-0.0141108 0.00102327 1e-05
-0.0138471 0.00102449 1e-05
-0.0135835 0.00102574 1e-05
-0.0133608 0.00102682 1e-05
-0.0133473 0.00102688 1e-05
-0.0133339 0.00102695 1e-05
-0.0133204 0.00102702 1e-05
-0.0133069 0.00102708 1e-05
-0.0132934 0.00102715 1e-05
-0.0130353 0.00102844 1e-05
-0.0127771 0.00102974 1e-05
-0.0125189 0.00103106 1e-05
-0.0122607 0.00103239 1e-05
-0.0120025 0.00103374 1e-05
-0.0117547 0.00103505 1e-05
-0.0115068 0.00103637 1e-05
-0.0112589 0.00103769 1e-05
-0.0110111 0.00103901 1e-05
-0.0107632 0.00104034 1e-05
-0.0105252 0.00104161 1e-05
-0.0102873 0.00104289 1e-05
-0.0100493 0.00104417 1e-05
-0.00981133 0.00104545 1e-05
-0.00957337 0.00104673 1e-05
-0.00934491 0.00104794 1e-05
-0.00911645 0.00104917 1e-05
-0.00888799 0.00105038 1e-05
-0.00865954 0.0010516 1e-05
-0.00843108 0.00105281 1e-05
-0.00821175 0.00105397 1e-05
-0.00799242 0.00105512 1e-05
-0.00777309 0.00105628 1e-05
-0.00755376 0.00105742 1e-05
-0.00733443 0.00105857 1e-05
-0.00712387 0.00105966 1e-05
-0.0069133 0.00106075 1e-05
-0.00670273 0.00106183 1e-05
-0.00649216 0.00106291 1e-05
-0.0062816 0.00106399 1e-05
-0.00607944 0.00106501 1e-05
-0.00587729 0.00106604 1e-05
-0.00567514 0.00106706 1e-05
-0.00547298 0.00106807 1e-05
-0.00527083 0.00106908 1e-05
-0.00507675 0.00107004 1e-05
-0.00488267 0.00107101 1e-05
-0.0046886 0.00107196 1e-05
-0.00449452 0.00107292 1e-05
-0.00430044 0.00107387 1e-05
-0.00411412 0.00107477 1e-05
-0.0039278 0.00107568 1e-05
-0.00374147 0.00107658 1e-05
-0.00355515 0.00107748 1e-05
-0.00336883 0.00107837 1e-05
-0.00318995 0.00107922 1e-05
-0.00301107 0.00108007 1e-05
-0.00283219 0.00108092 1e-05
-0.00265331 0.00108176 1e-05
-0.00247443 0.00108261 1e-05
-0.0023027 0.00108341 1e-05
-0.00213097 0.00108421 1e-05
-0.00195924 0.00108502 1e-05
-0.0017875 0.00108582 1e-05
-0.00161577 0.00108661 1e-05
-0.0014509 0.00108737 1e-05
-0.00128603 0.00108813 1e-05
-0.00112116 0.00108889 1e-05
-0.000956289 0.00108965 1e-05
-0.000791418 0.00109041 1e-05
-0.000633135 0.00109114 1e-05
-0.000474851 0.00109186 1e-05
-0.000316567 0.00109259 1e-05
-0.000158284 0.00109331 1e-05
0 0.00109403 1e-05
0.000105677 0.00109451 1e-05
0.000211355 0.00109498 1e-05
0.000317032 0.00109546 1e-05
0.00042271 0.00109593 1e-05
0.000528387 0.00109639 1e-05
0.000634886 0.00109686 1e-05
0.000741385 0.00109732 1e-05
0.000847885 0.00109778 1e-05
0.000954384 0.00109823 1e-05
0.00106088 0.00109869 1e-05
0.00116821 0.00109914 1e-05
0.00127554 0.00109958 1e-05
0.00138286 0.00110003 1e-05
0.00149019 0.00110046 1e-05
0.00159752 0.00110089 1e-05
0.00170568 0.00110132 1e-05
0.00181384 0.00110174 1e-05
0.001922 0.00110215 1e-05
0.00203016 0.00110256 1e-05
0.00213833 0.00110295 1e-05
0.00224733 0.00110334 1e-05
0.00235633 0.00110372 1e-05
0.00246533 0.0011041 1e-05
0.00257434 0.00110447 1e-05
0.00268334 0.00110482 1e-05
0.00279319 0.00110517 1e-05
0.00290304 0.00110552 1e-05
0.00301289 0.00110585 1e-05
0.00312274 0.00110618 1e-05
0.00323259 0.00110651 1e-05
0.00334329 0.00110682 1e-05
0.003454 0.00110713 1e-05
0.0035647 0.00110743 1e-05
0.0036754 0.00110772 1e-05
0.00378611 0.00110801 1e-05
0.00389767 0.00110828 1e-05
0.00400924 0.00110856 1e-05
0.0041208 0.00110882 1e-05
0.00423237 0.00110908 1e-05
0.00434393 0.00110933 1e-05
0.00445636 0.00110957 1e-05
0.00456879 0.0011098 1e-05
0.00468123 0.00111003 1e-05
0.00479366 0.00111025 1e-05
0.00490609 0.00111047 1e-05
0.0050194 0.00111067 1e-05
0.0051327 0.00111087 1e-05
0.00524601 0.00111106 1e-05
0.00535932 0.00111125 1e-05
0.00547262 0.00111142 1e-05
0.00558681 0.00111159 1e-05
0.005701 0.00111175 1e-05
0.00581518 0.00111191 1e-05
0.00592937 0.00111206 1e-05
0.00604356 0.0011122 1e-05
0.00615863 0.00111233 1e-05
0.00627371 0.00111245 1e-05
0.00638878 0.00111257 1e-05
0.00650386 0.00111268 1e-05
0.00661893 0.00111279 1e-05
0.0067349 0.00111288 1e-05
0.00685087 0.00111297 1e-05
0.00696684 0.00111306 1e-05
0.00708281 0.00111313 1e-05
0.00719878 0.0011132 1e-05
0.00727026 0.00111323 1e-05
0.00734174 0.00111327 1e-05
0.00741321 0.0011133 1e-05
0.00748469 0.00111333 1e-05
0.0075538 0.00111335 1e-05
0.00759967 0.00111336 1e-05
0.00764554 0.00111338 1e-05
0.0076914 0.00111339 1e-05
0.00773727 0.0011134 1e-05
0.00778313 0.00111341 1e-05
0.00790091 0.00111343 1e-05
0.00801869 0.00111345 1e-05
0.00813647 0.00111345 1e-05
0.00825425 0.00111345 1e-05
0.00837203 0.00111344 1e-05
0.00849073 0.00111342 1e-05
0.00860942 0.0011134 1e-05
0.00872812 0.00111336 1e-05
0.00884682 0.00111332 1e-05
0.00896551 0.00111328 1e-05
0.00908513 0.00111321 1e-05
0.00920475 0.00111315 1e-05
0.00932437 0.00111307 1e-05
0.00944398 0.00111299 1e-05
0.0095636 0.00111291 1e-05
0.00968415 0.0011128 1e-05
0.0098047 0.00111269 1e-05
0.00992525 0.00111258 1e-05
0.0100458 0.00111246 1e-05
0.0101663 0.00111233 1e-05
0.0102878 0.00111218 1e-05
0.0104093 0.00111203 1e-05
0.0105308 0.00111187 1e-05
0.0106523 0.00111171 1e-05
0.0107738 0.00111154 1e-05
0.0108962 0.00111134 1e-05
0.0110186 0.00111115 1e-05
0.0111411 0.00111096 1e-05
0.0112635 0.00111075 1e-05
0.0113859 0.00111053 1e-05
0.0115093 0.00111029 1e-05
0.0116327 0.00111006 1e-05
0.0117561 0.00110982 1e-05
0.0118795 0.00110957 1e-05
0.0120028 0.00110931 1e-05
0.0121272 0.00110902 1e-05
0.0122515 0.00110874 1e-05
0.0123759 0.00110846 1e-05
0.0125002 0.00110816 1e-05
0.0126245 0.00110786 1e-05
0.0127498 0.00110752 1e-05
0.0128752 0.0011072 1e-05
0.0130005 0.00110687 1e-05
0.0131258 0.00110652 1e-05
0.0132511 0.00110617 1e-05
0.0133774 0.0011058 1e-05
0.0135036 0.00110542 1e-05
0.0136299 0.00110504 1e-05
0.0137562 0.00110465 1e-05
0.0138825 0.00110425 1e-05
0.0140098 0.00110383 1e-05
0.014137 0.00110341 1e-05
0.0142643 0.00110298 1e-05
0.0143915 0.00110254 1e-05
0.0145188 0.0011021 1e-05
0.0146471 0.00110163 1e-05
0.0147753 0.00110116 1e-05
0.0149036 0.00110068 1e-05
0.0150318 0.00110019 1e-05
0.0151601 0.00109969 1e-05
0.0152893 0.00109918 1e-05
0.0154186 0.00109866 1e-05
0.0155478 0.00109813 1e-05
0.0156771 0.00109759 1e-05
0.0158063 0.00109704 1e-05
0.0159366 0.00109648 1e-05
0.0160668 0.00109591 1e-05
0.0161971 0.00109533 1e-05
0.0163274 0.00109474 1e-05
0.0164576 0.00109414 1e-05
0.0165889 0.00109353 1e-05
0.0167201 0.00109291 1e-05
0.0168514 0.00109228 1e-05
0.0169827 0.00109164 1e-05
0.0171139 0.001091 1e-05
0.0172462 0.00109034 1e-05
0.0173785 0.00108967 1e-05
0.0175108 0.00108899 1e-05
0.0176431 0.0010883 1e-05
0.0177754 0.0010876 1e-05
0.0179087 0.00108689 1e-05
0.018042 0.00108617 1e-05
0.0181753 0.00108544 1e-05
0.0183087 0.0010847 1e-05
0.018442 0.00108395 1e-05
0.0185763 0.0010832 1e-05
0.0187107 0.00108243 1e-05
0.018845 0.00108164 1e-05
0.0189794 0.00108084 1e-05
0.0191137 0.00108005 1e-05
0.0192491 0.00107925 1e-05
0.0193845 0.00107843 1e-05
0.0195199 0.00107759 1e-05
0.0196553 0.00107674 1e-05
0.0197907 0.00107589 1e-05
0.0199272 0.00107505 1e-05
0.0200636 0.00107418 1e-05
0.0202001 0.00107328 1e-05
0.0203365 0.00107238 1e-05
0.020473 0.00107149 1e-05
0.0206105 0.00107059 1e-05
0.020748 0.00106967 1e-05
0.0208855 0.00106873 1e-05
0.021023 0.00106778 1e-05
0.0211606 0.00106683 1e-05
0.0212991 0.00106588 1e-05
0.0214377 0.00106491 1e-05
0.0215763 0.00106392 1e-05
0.0217149 0.00106292 1e-05
0.0218535 0.00106192 1e-05
0.0219931 0.00106093 1e-05
0.0221328 0.0010599 1e-05
0.0222724 0.00105886 1e-05
0.0224121 0.00105781 1e-05
0.0225517 0.00105676 1e-05
0.0226925 0.00105571 1e-05
0.0228332 0.00105464 1e-05
0.022974 0.00105355 1e-05
0.0231147 0.00105244 1e-05
0.0232555 0.00105134 1e-05
0.0233973 0.00105025 1e-05
0.0235391 0.00104912 1e-05
0.023681 0.00104797 1e-05
0.0238228 0.00104682 1e-05
0.0239647 0.00104567 1e-05
0.0241076 0.00104452 1e-05
0.0242505 0.00104335 1e-05
0.0243935 0.00104215 1e-05
0.0245364 0.00104094 1e-05
0.0246794 0.00103974 1e-05
0.0248234 0.00103854 1e-05
0.0249675 0.00103731 1e-05
0.0251115 0.00103606 1e-05
0.0252556 0.0010348 1e-05
[...]
POINT_DATA 12040
 FIELD attributes 2
p 1 12040 float
-4.82199 -4.81868 -4.81537 -4.81206 -4.80875 -4.80545
-4.97498 -4.97496 -4.97494 -4.97491 -4.97489 -4.97487
-5.14874 -5.14862 -5.1485 -5.14837 -5.14825 -5.14814
-5.24169 -5.24163 -5.24158 -5.24152 -5.24147 -5.24142
-5.2864 -5.28629 -5.28618 -5.28607 -5.28595 -5.28584
-5.29264 -5.29248 -5.29232 -5.29216 -5.292 -5.29184
-5.26548 -5.26541 -5.26534 -5.26527 -5.2652 -5.26512
-5.19577 -5.19573 -5.19569 -5.19565 -5.19561 -5.19557
-5.07446 -5.07447 -5.07447 -5.07448 -5.07449 -5.07449
-2.86193 -2.88126 -2.90045 -2.91951 -2.93844 -2.95724
-4.82199 -4.82132 -4.81776 -4.81411 -4.81039 -4.80213 -4.81606 -4.83109 -4.84613 -4.86117 -4.88566 -4.90745 -4.93742 -4.96738 -4.99735 -5.03012 -5.04581 -5.06754 -5.08928 -5.11101 -5.13437 -5.1533 -5.17425 -5.1952 -5.21615 -5.23385 -5.23492 -5.23599 -5.23705 -5.23812 -5.23919 -5.26089 -5.28259 -5.3043 -5.326 -5.34744 -5.36625 -5.38487 -5.40349 -5.42212 -5.44017 -5.45585 -5.47126 -5.48666 -5.50207 -5.51692 -5.53077 -5.54437 -5.55797 -5.57157 -5.58472 -5.59751 -5.61004 -5.62257 -5.63511 -5.64722 -5.65911 -5.67071 -5.6823 -5.6939 -5.70507 -5.71615 -5.72696 -5.73777 -5.74857 -5.75902 -5.76949 -5.77969 -5.78989 -5.80009 -5.80997 -5.81995 -5.82973 -5.83952 -5.84931 -5.85888 -5.86855 -5.87795 -5.88735 -5.89676 -5.90594 -5.9154 -5.92499 -5.93458 -5.94416 -5.95389 -5.96382 -5.97351 -5.98319 -5.99287 -6.00238 -6.01238 -6.02321 -6.03404 -6.04488 -6.0559 -6.06586 -6.07656 -6.08727 -6.09797 -6.10822 -6.11752 -6.12634 -6.13517 -6.144 -6.15202 -6.15916 -6.16734 -6.17552 -6.1837 -6.19261 -6.20077 -6.20938 -6.21799 -6.22661 -6.23533 -6.24345 -6.25059 -6.25773 -6.26487 -6.27116 -6.27786 -6.28327 -6.28869 -6.29411 -6.29848 -6.30411 -6.30869 -6.31328 -6.31787 -6.32152 -6.3264 -6.33038 -6.33436 -6.33834 -6.34151 -6.34542 -6.34859 -6.35176 -6.35492 -6.35749 -6.36039 -6.36274 -6.3651 -6.36745 -6.36944 -6.37161 -6.37342 -6.37524 -6.37706 -6.37869 -6.38049 -6.38209 -6.38368 -6.38528 -6.38679 -6.3884 -6.3899 -6.39139 -6.39289 -6.39436 -6.39526 -6.39612 -6.39698 -6.39784 -6.39868 -6.39923 -6.39978 -6.40034 -6.40089 -6.40148 -6.40278 -6.40413 -6.40548 -6.40683 -6.40837 -6.4095 -6.41085 -6.41219 -6.41354 -6.41531 -6.41623 -6.41762 -6.419 -6.42039 -6.42249 -6.42321 -6.4247 -6.42619 -6.42768 -6.43024 -6.43077 -6.43239 -6.43401 -6.43563 -6.43867 -6.43898 -6.44069 -6.44241 -6.44412 -6.4476 -6.4477 -6.44953 -6.45135 -6.45317 -6.45712 -6.45708 -6.45904 -6.461 -6.46296 -6.46735 -6.46722 -6.46933 -6.47143 -6.47354 -6.47829 -6.47812 -6.48036 -6.4826 -6.48485 -6.48992 -6.48973 -6.49212 -6.4945 -6.49706 -6.50224 -6.50236 -6.50463 -6.50717 -6.51014 -6.51527 -6.51573 -6.51793 -6.52061 -6.52395 -6.52902 -6.52984 -6.53199 -6.53482 -6.53849 -6.5435 -6.54466 -6.54682 -6.5498 -6.55375 -6.55868 -6.56019 -6.5624 -6.56552 -6.5697 -6.57455 -6.57641 -6.57869 -6.58195 -6.58633 -6.59111 -6.59329 -6.59569 -6.59909 -6.60362 -6.60835 -6.61082 -6.61336 -6.61689 -6.62154 -6.62623 -6.62898 -6.63174 -6.63544 -6.64009 -6.64474 -6.64776 -6.65077 -6.65459 -6.65923 -6.66387 -6.66714 -6.6704 -6.67435 -6.67899 -6.68363 -6.68714 -6.69066 -6.69473 -6.69936 -6.704 -6.70774 -6.71148 -6.71566 -6.72027 -6.72489 -6.72883 -6.73277 -6.73703 -6.74163 -6.74622 -6.75031 -6.75439 -6.75874 -6.76334 -6.76795 -6.77215 -6.77636 -6.7808 -6.78542 -6.79005 -6.79436 -6.79869 -6.8032 -6.80783 -6.8125 -6.81689 -6.82133 -6.8259 -6.83056 -6.83527 -6.83973 -6.84426 -6.84889 -6.85358 -6.85833 -6.86285 -6.86746 -6.87213 -6.87685 -6.88164 -6.88621 -6.89087 -6.89559 -6.90032 -6.90514 -6.90974 -6.91446 -6.9192 -6.92395 -6.92879 -6.93341 -6.93816 -6.94292 -6.94768 -6.95253 -6.95717 -6.96194 -6.9667 -6.97146 -6.9763 -6.98096 -6.98572 -6.99048 -6.99523 -7.00004 -7.00471 -7.00945 -7.01418 -7.01892 -7.0237 -7.02835 -7.03305 -7.03776 -7.04247 -7.04719 -7.05182 -7.05647 -7.06113 -7.06579 -7.07045 -7.07301 -7.07558 -7.07816 -7.08073 -7.08324 -7.08527 -7.08731 -7.08935 -7.09138 -7.09342 -7.09794 -7.10246 -7.10698 -7.1115 -7.11604 -7.12047 -7.12489 -7.12932 -7.13375 -7.13819 -7.14252 -7.14684 -7.15116 -7.15548 -7.15982 -7.16404 -7.16823 -7.17243 -7.17663 -7.18084 -7.18493 -7.18897 -7.19302 -7.19707 -7.20111 -7.20506 -7.20893 -7.21281 -7.21668 -7.22054 -7.22432 -7.22802 -7.23171 -7.23538 -7.23904 -7.24263 -7.24615 -7.24962 -7.25307 -7.2565 -7.25987 -7.26319 -7.26643 -7.26962 -7.27279 -7.27592 -7.27902 -7.28199 -7.28489 -7.28778 -7.29064 -7.2935 -7.29619 -7.29877 -7.30135 -7.30392 -7.30649 -7.30888 -7.31112 -7.31336 -7.31561 -7.31787 -7.31993 -7.32181 -7.3237 -7.3256 -7.32751 -7.32923 -7.33072 -7.33221 -7.33374 -7.33527 -7.33662 -7.33769 -7.33877 -7.33989 -7.34099 -7.34191 -7.34259 -7.34322 -7.3439 -7.34451 -7.34498 -7.34526 -7.34541 -7.34563 -7.34571 -7.34569 -7.34555 -7.3452 -7.34492 -7.34443 -7.34389 -7.34332 -7.34243 -7.34161 -7.34052 -7.33942 -7.33833 -7.33694 -7.33549 -7.33381 -7.33213 -7.33045 -7.32857 -7.32644 -7.32415 -7.32185 -7.31956 -7.31717 -7.31452 -7.31179 -7.30906 -7.30633 -7.30376 -7.30353 -7.30329 -7.30306 -7.30282 -7.30258 -7.29902 -7.29545 -7.29189 -7.28833 -7.28464 -7.28052 -7.27625 -7.27197 -7.26771 -7.26318 -7.25848 -7.25347 -7.24846 -7.24345 -7.23803 -7.23274 -7.22696 -7.22118 -7.21533 -7.20904 -7.20298 -7.19656 -7.18998 -7.18316 -7.17604 -7.16917 -7.16211 -7.1547 -7.14686 -7.13889 -7.13117 -7.12346 -7.11515 -7.10628 -7.09742 -7.08882 -7.08023 -7.07105 -7.06127 -7.05149 -7.04199 -7.03249 -7.02239 -7.01167 -7.00095 -6.99051 -6.98005 -6.96895 -6.95734 -6.94564 -6.93424 -6.92258 -6.91049 -6.89813 -6.88543 -6.87304 -6.86013 -6.84703 -6.83391 -6.82019 -6.80671 -6.79257 -6.77843 -6.7643 -6.74978 -6.73498 -6.71977 -6.70458 -6.68938 -6.67408 -6.66753 -6.66086 -6.6542 -6.64753 -6.64106 -6.63148 -6.62191 -6.61235 -6.60278 -6.59306 -6.57596 -6.55872 -6.54148 -6.52425 -6.50658 -6.48864 -6.47028 -6.45192 -6.43351 -6.41447 -6.39551 -6.3762 -6.35671 -6.33684 -6.31665 -6.29654 -6.27638 -6.25575 -6.23439 -6.21302 -6.19176 -6.1705 -6.14861 -6.12606 -6.10351 -6.08107 -6.05864 -6.03551 -6.01179 -5.98805 -5.96443 -5.94048 -5.91609 -5.89151 -5.86657 -5.84175 -5.8162 -5.7906 -5.76501 -5.73903 -5.71265 -5.68583 -5.65902 -5.63221 -5.60538 -5.60357 -5.60172 -5.59987 -5.59803 -5.59619 -5.57007 -5.54397 -5.51787 -5.49177 -5.4654 -5.43644 -5.40728 -5.37812 -5.34897 -5.31924 -5.28919 -5.25891 -5.22855 -5.19786 -5.16691 -5.13564 -5.10438 -5.07274 -5.04058 -5.00841 -4.97593 -4.94345 -4.9105 -4.87712 -4.84375 -4.81005 -4.77621 -4.74194 -4.70753 -4.67295 -4.63807 -4.60267 -4.56721 -4.53175 -4.49608 -4.46521 -4.43404 -4.40288 -4.37172 -4.34222 -4.33642 -4.33062 -4.32482 -4.31902 -4.31316 -4.27547 -4.23775 -4.20004 -4.16234 -4.12416 -4.08557 -4.0467 -4.00785 -3.96877 -3.92926 -3.88955 -3.84979 -3.8098 -3.76919 -3.72856 -3.68772 -3.64689 -3.60558 -3.56387 -3.52214 -3.48021 -3.43809 -3.39556 -3.35294 -3.31014 -3.26714 -3.22354 -3.17995 -3.13637 -3.09268 -3.07385 -3.05484 -3.03583 -3.01683 -2.9983 -2.97264 -2.94698 -2.92133 -2.89568 -2.86976 -2.82436 -2.77883 -2.73331 -2.68773 -2.64157 -2.5953 -2.54893 -2.50245 -2.45548 -2.40838 -2.36115 -2.31394 -2.26633 -2.21835 -2.17035 -2.12222 -2.07392 -2.02525 -1.97653 -1.92767 -1.87864 -1.82911 -1.7796 -1.73009 -1.68054 -1.67142 -1.66223 -1.65304 -1.64385 -1.63476 -1.59365 -1.55255 -1.51145 -1.47037 -1.42891 -1.37801 -1.327 -1.27599 -1.22477 -1.17321 -1.12159 -1.06998 -1.01817 -0.965961 -0.913728 -0.861424 -0.809116 -0.756362 -0.703546 -0.65067 -0.597721 -0.5444 -0.491031 -0.437672 -0.384247 -0.36637 -0.348381 -0.330393 -0.312406 -0.294734 -0.258729 -0.222727 -0.18673 -0.150738 -0.114482 -0.0600763 -0.00564386 0.0487785 0.103352 0.158186 0.213062 0.267927 0.322886 0.378082 0.433315 0.488597 0.54392 0.599489 0.655046 0.710637 0.766303 0.82221 0.878107 0.933995 0.989919 0.990796 0.991676 0.992556 0.993436 0.994316 1.04967 1.10501 1.16034 1.21566 1.27126 1.32777 1.38424 1.44068 1.4973 1.554 1.61071 1.66741 1.72422 1.78101 1.83784 1.8947 1.95163 2.0086 2.06555 2.1225 2.14112 2.15976 2.1784 2.19704 2.2154 2.2539 2.29239 2.33087 2.36935 2.40794 2.46516 2.52227 2.57936 2.63649 2.69371 2.75089 2.80807 2.86521 2.92227 2.97938 3.03647 3.09354 3.1506 3.20765 3.26466 3.28386 3.30304 3.32222 3.34139 3.3603 3.39815 3.436 3.47385 3.51169 3.54954 3.60651 3.66332 3.7201 3.77682 3.83357 3.89027 3.94697 4.00355 4.05992 4.11634 4.17272 4.22896 4.28517 4.34137 4.39757 4.40337 4.40915 4.41493 4.4207 4.42646 4.47668 4.52689 4.57711 4.6273 4.67739 4.73318 4.7889 4.84444 4.89978 4.95516 5.01048 5.06576 5.12081 5.17576 5.23061 5.26769 5.30458 5.34145 5.37832 5.41441 5.43228 5.45014 5.468 5.48585 5.50364 5.55795 5.61211 5.66625 5.72026 5.77416 5.82794 5.88171 5.93521 5.98839 6.04163 6.09475 6.14759 6.20034 6.25309 6.30582 6.31064 6.31543 6.32022 6.325 6.32978 6.37729 6.42481 6.47232 6.51979 6.567 6.61884 6.67064 6.72214 6.77332 6.82453 6.87559 6.92649 6.97712 7.02775 7.07817 7.09818 7.11805 7.13789 7.15773 7.17746 7.20765 7.23783 7.26802 7.29815 7.32806 7.37762 7.42701 7.47629 7.52511 7.57391 7.62259 7.67118 7.71935 7.76745 7.81533 7.83883 7.86212 7.88535 7.90858 7.93179 7.95599 7.98019 8.00439 8.02853 8.05246 8.09942 8.14616 8.19282 8.23902 8.28513 8.33112 8.37704 8.42246 8.46781 8.51293 8.53573 8.5583 8.5808 8.6033 8.62595 8.64803 8.67012 8.69221 8.71423 8.73603 8.78013 8.824 8.8678 8.91112 8.95433 8.99738 9.04037 9.08285 9.12525 9.1674 9.18889 9.21016 9.23135 9.25254 9.27404 9.2944 9.31476 9.33512 9.35541 9.37549 9.41653 9.45734 9.49809 9.53837 9.57852 9.61847 9.65839 9.69777 9.73705 9.7761 9.79869 9.82102 9.84328 9.86554 9.8884 9.90446 9.92053 9.9366 9.95262 9.96845 10.0063 10.0439 10.0815 10.1187 10.1556 10.1924 10.2291 10.2654 10.3013 10.3372 10.3659 10.3941 10.4224 10.4506 10.4803 10.4869 10.4935 10.5001 10.5067 10.5132 10.5477 10.582 10.6163 10.6504 10.6842 10.7176 10.7511 10.7841 10.8168 10.8494 10.8817 10.9137 10.9455 10.9773 11.0089 11.0191 11.0291 11.0391 11.0491 11.0594 11.0802 11.1011 11.1219 11.1427 11.1632 11.1934 11.2233 11.2532 11.2828 11.3122 11.3413 11.3703 11.399 11.4273 11.4556 11.4835 11.5112 11.5388 11.5664 11.5937 11.604 11.614 11.6239 11.6339 11.6445 11.6608 11.677 11.6933 11.7096 11.7255 11.7511 11.7769 11.8027 11.829 11.8559 11.8824 11.9088 11.9294 11.9449 11.9604 11.9751 11.9899 12.0153 12.0487 12.0827 12.1161 12.1346 12.1486 12.1627 12.1758 12.176 12.1763 12.1766 12.177 12.1774 12.1836 12.1898 12.196 12.203 12.2143 12.2251 12.2359 12.2459 12.2552 12.2644 12.2727 12.2802 12.2863 12.2924 12.2971 12.2989 12.3 12.301 12.302 12.3031 12.3045 12.3059 12.3073 12.3086 12.3094 12.3092 12.3079 12.3066 12.3044 12.3014 12.2967 12.292 12.2855 12.2773 12.2691 12.2591 12.2479 12.2355 12.2231 12.2091 12.1989 12.1872 12.1754 12.1637 12.1501 12.1439 12.1376 12.1314 12.1251 12.1182 12.0946 12.07 12.0453 12.0201 11.9927 11.9623 11.9313 11.8984 11.8625 11.8266 11.7874 11.7481 11.7058 11.6602 11.6146 11.5653 11.5138 11.4605 11.4072 11.3508 11.2939 11.234 11.174 11.114 11.0379 11.0362 11.0345 11.0328 11.031 11.0292 10.9531 10.8767 10.8002 10.7237 10.6438 10.5568 10.4658 10.3747 10.2818 10.1854 10.0833 9.97968 9.87179 9.75766 9.64286 9.52191 9.40088 9.27437 9.14257 9.01064 8.87205 8.73316 8.58282 8.42431 8.26422 8.09652 7.92779 7.75813 7.58802 7.41646 7.23699 7.02733 6.81743 6.60758 6.38055 6.1479 5.93175 5.71555 5.49931 5.28695 5.20496 5.1061 5.00729 4.90853 4.79732 4.58801 4.37848 4.16873 3.95877 3.71653 3.39821 3.13868 2.87839 2.61738 2.49468 2.37831 1.94292 1.51268 0.94351 0