# vtk DataFile Version 2.0
track0
ASCII
DATASET POLYDATA
POINTS 12040 float
-0.0205 0.001 1e-05
-0.02052 0.000999985 1e-05
-0.02054 0.000999974 1e-05
-0.02056 0.000999965 1e-05
-0.02058 0.000999959 1e-05
-0.0206 0.000999956 1e-05
-0.0205 0.00367778 1e-05
-0.02052 0.00367778 1e-05
-0.02054 0.00367777 1e-05
-0.02056 0.00367777 1e-05
-0.02058 0.00367777 1e-05
-0.0206 0.00367777 1e-05
-0.0205 0.00635556 1e-05
-0.02052 0.00635555 1e-05
-0.02054 0.00635555 1e-05
-0.02056 0.00635555 1e-05
-0.02058 0.00635555 1e-05
-0.0206 0.00635555 1e-05
-0.0205 0.00903333 1e-05
-0.02052 0.00903333 1e-05
-0.02054 0.00903333 1e-05
-0.02056 0.00903333 1e-05
-0.02058 0.00903333 1e-05
-0.0206 0.00903333 1e-05
-0.0205 0.0117111 1e-05
-0.02052 0.0117111 1e-05
-0.02054 0.0117111 1e-05
-0.02056 0.0117111 1e-05
-0.02058 0.0117111 1e-05
-0.0206 0.0117111 1e-05
-0.0205 0.0143889 1e-05
-0.02052 0.0143889 1e-05
-0.02054 0.0143889 1e-05
-0.02056 0.0143889 1e-05
-0.02058 0.0143889 1e-05
-0.0206 0.0143889 1e-05
-0.0205 0.0170667 1e-05
-0.02052 0.0170667 1e-05
-0.02054 0.0170667 1e-05
-0.02056 0.0170667 1e-05
-0.02058 0.0170667 1e-05
-0.0206 0.0170667 1e-05
-0.0205 0.0197444 1e-05
-0.02052 0.0197444 1e-05
-0.02054 0.0197444 1e-05
-0.02056 0.0197444 1e-05
-0.02058 0.0197444 1e-05
-0.0206 0.0197444 1e-05
-0.0205 0.0224222 1e-05
-0.02052 0.0224222 1e-05
-0.02054 0.0224222 1e-05
-0.02056 0.0224222 1e-05
-0.02058 0.0224222 1e-05
-0.0206 0.0224222 1e-05
-0.0205 0.0251 1e-05
-0.02052 0.0250998 1e-05
-0.02054 0.0250997 1e-05
-0.02056 0.0250995 1e-05
-0.02058 0.0250995 1e-05
-0.0206 0.0250994 1e-05
-0.0205 0.001 1e-05
-0.0202034 0.00100022 1e-05
-0.0199069 0.00100067 1e-05
-0.0196103 0.00100133 1e-05
-0.0193137 0.00100219 1e-05
-0.0190172 0.00100326 1e-05
-0.0187132 0.00100467 1e-05
-0.0184093 0.00100589 1e-05
-0.0181054 0.00100711 1e-05
-0.0178015 0.00100832 1e-05
-0.0174976 0.00100954 1e-05
-0.0172058 0.00101083 1e-05
-0.016914 0.00101193 1e-05
-0.0166222 0.00101303 1e-05
-0.0163305 0.00101413 1e-05
-0.0160387 0.00101523 1e-05
-0.0157586 0.00101637 1e-05
-0.0154784 0.00101745 1e-05
-0.0151983 0.00101856 1e-05
-0.0149182 0.00101971 1e-05
-0.0146381 0.0010209 1e-05
-0.0143744 0.00102209 1e-05
-0.0141108 0.00102327 1e-05
-0.0138471 0.00102449 1e-05
-0.0135835 0.00102574 1e-05
-0.0133608 0.00102682 1e-05
-0.0133473 0.00102688 1e-05
-0.0133339 0.00102695 1e-05
-0.0133204 0.00102702 1e-05
-0.0133069 0.00102708 1e-05
-0.0132934 0.00102715 1e-05
-0.0130353 0.00102844 1e-05
-0.0127771 0.00102974 1e-05
-0.0125189 0.00103106 1e-05
-0.0122607 0.00103239 1e-05
-0.0120025 0.00103374 1e-05
-0.0117547 0.00103505 1e-05
-0.0115068 0.00103637 1e-05
-0.0112589 0.00103769 1e-05
-0.0110111 0.00103901 1e-05
-0.0107632 0.00104034 1e-05
-0.0105252 0.00104161 1e-05
-0.0102873 0.00104289 1e-05
-0.0100493 0.00104417 1e-05
-0.00981133 0.00104545 1e-05
-0.00957337 0.00104673 1e-05
-0.00934491 0.00104794 1e-05
-0.00911645 0.00104917 1e-05
-0.00888799 0.00105038 1e-05
-0.00865954 0.0010516 1e-05
-0.00843108 0.00105281 1e-05
-0.00821175 0.00105397 1e-05
-0.00799242 0.00105512 1e-05
-0.00777309 0.00105628 1e-05
-0.00755376 0.00105742 1e-05
-0.00733443 0.00105857 1e-05
-0.00712387 0.00105966 1e-05
-0.0069133 0.00106075 1e-05
-0.00670273 0.00106183 1e-05
-0.00649216 0.00106291 1e-05
-0.0062816 0.00106399 1e-05
-0.00607944 0.00106501 1e-05
-0.00587729 0.00106604 1e-05
-0.00567514 0.00106706 1e-05
-0.00547298 0.00106807 1e-05
-0.00527083 0.00106908 1e-05
-0.00507675 0.00107004 1e-05
-0.00488267 0.00107101 1e-05
-0.0046886 0.00107196 1e-05
-0.00449452 0.00107292 1e-05
-0.00430044 0.00107387 1e-05
-0.00411412 0.00107477 1e-05
-0.0039278 0.00107568 1e-05
-0.00374147 0.00107658 1e-05
-0.00355515 0.00107748 1e-05
-0.00336883 0.00107837 1e-05
-0.00318995 0.00107922 1e-05
-0.00301107 0.00108007 1e-05
-0.00283219 0.00108092 1e-05
-0.00265331 0.00108176 1e-05
-0.00247443 0.00108261 1e-05
-0.0023027 0.00108341 1e-05
-0.00213097 0.00108421 1e-05
-0.00195924 0.00108502 1e-05
-0.0017875 0.00108582 1e-05
-0.00161577 0.00108661 1e-05
-0.0014509 0.00108737 1e-05
-0.00128603 0.00108813 1e-05
-0.00112116 0.00108889 1e-05
-0.000956289 0.00108965 1e-05
-0.000791418 0.00109041 1e-05
-0.000633135 0.00109114 1e-05
-0.000474851 0.00109186 1e-05
-0.000316567 0.00109259 1e-05
-0.000158284 0.00109331 1e-05
0 0.00109403 1e-05
0.000105677 0.00109451 1e-05
0.000211355 0.00109498 1e-05
0.000317032 0.00109546 1e-05
0.00042271 0.00109593 1e-05
0.000528387 0.00109639 1e-05
0.000634886 0.00109686 1e-05
0.000741385 0.00109732 1e-05
0.000847885 0.00109778 1e-05
0.000954384 0.00109823 1e-05
0.00106088 0.00109869 1e-05
0.00116821 0.00109914 1e-05
0.00127554 0.00109958 1e-05
0.00138286 0.00110003 1e-05
0.00149019 0.00110046 1e-05
0.00159752 0.00110089 1e-05
0.00170568 0.00110132 1e-05
0.00181384 0.00110174 1e-05
0.001922 0.00110215 1e-05
0.00203016 0.00110256 1e-05
0.00213833 0.00110295 1e-05
0.00224733 0.00110334 1e-05
0.00235633 0.00110372 1e-05
0.00246533 0.0011041 1e-05
0.00257434 0.00110447 1e-05
0.00268334 0.00110482 1e-05
0.00279319 0.00110517 1e-05
0.00290304 0.00110552 1e-05
0.00301289 0.00110585 1e-05
0.00312274 0.00110618 1e-05
0.00323259 0.00110651 1e-05
0.00334329 0.00110682 1e-05
0.003454 0.00110713 1e-05
0.0035647 0.00110743 1e-05
0.0036754 0.00110772 1e-05
0.00378611 0.00110801 1e-05
0.00389767 0.00110828 1e-05
0.00400924 0.00110856 1e-05
0.0041208 0.00110882 1e-05
0.00423237 0.00110908 1e-05
0.00434393 0.00110933 1e-05
0.00445636 0.00110957 1e-05
0.00456879 0.0011098 1e-05
0.00468123 0.00111003 1e-05
0.00479366 0.00111025 1e-05
0.00490609 0.00111047 1e-05
0.0050194 0.00111067 1e-05
0.0051327 0.00111087 1e-05
0.00524601 0.00111106 1e-05
0.00535932 0.00111125 1e-05
0.00547262 0.00111142 1e-05
0.00558681 0.00111159 1e-05
0.005701 0.00111175 1e-05
0.00581518 0.00111191 1e-05
0.00592937 0.00111206 1e-05
0.00604356 0.0011122 1e-05
0.00615863 0.00111233 1e-05
0.00627371 0.00111245 1e-05
0.00638878 0.00111257 1e-05
0.00650386 0.00111268 1e-05
0.00661893 0.00111279 1e-05
0.0067349 0.00111288 1e-05
0.00685087 0.00111297 1e-05
0.00696684 0.00111306 1e-05
0.00708281 0.00111313 1e-05
0.00719878 0.0011132 1e-05
0.00727026 0.00111323 1e-05
0.00734174 0.00111327 1e-05
0.00741321 0.0011133 1e-05
0.00748469 0.00111333 1e-05
0.0075538 0.00111335 1e-05
0.00759967 0.00111336 1e-05
0.00764554 0.00111338 1e-05
0.0076914 0.00111339 1e-05
0.00773727 0.0011134 1e-05
0.00778313 0.00111341 1e-05
0.00790091 0.00111343 1e-05
0.00801869 0.00111345 1e-05
0.00813647 0.00111345 1e-05
0.00825425 0.00111345 1e-05
0.00837203 0.00111344 1e-05
0.00849073 0.00111342 1e-05
0.00860942 0.0011134 1e-05
0.00872812 0.00111336 1e-05
0.00884682 0.00111332 1e-05
0.00896551 0.00111328 1e-05
0.00908513 0.00111321 1e-05
0.00920475 0.00111315 1e-05
0.00932437 0.00111307 1e-05
0.00944398 0.00111299 1e-05
0.0095636 0.00111291 1e-05
0.00968415 0.0011128 1e-05
0.0098047 0.00111269 1e-05
0.00992525 0.00111258 1e-05
0.0100458 0.00111246 1e-05
0.0101663 0.00111233 1e-05
0.0102878 0.00111218 1e-05
0.0104093 0.00111203 1e-05
0.0105308 0.00111187 1e-05
0.0106523 0.00111171 1e-05
0.0107738 0.00111154 1e-05
0.0108962 0.00111134 1e-05
0.0110186 0.00111115 1e-05
0.0111411 0.00111096 1e-05
0.0112635 0.00111075 1e-05
0.0113859 0.00111053 1e-05
0.0115093 0.00111029 1e-05
0.0116327 0.00111006 1e-05
0.0117561 0.00110982 1e-05
0.0118795 0.00110957 1e-05
0.0120028 0.00110931 1e-05
0.0121272 0.00110902 1e-05
0.0122515 0.00110874 1e-05
0.0123759 0.00110846 1e-05
0.0125002 0.00110816 1e-05
0.0126245 0.00110786 1e-05
0.0127498 0.00110752 1e-05
0.0128752 0.0011072 1e-05
0.0130005 0.00110687 1e-05
0.0131258 0.00110652 1e-05
0.0132511 0.00110617 1e-05
0.0133774 0.0011058 1e-05
0.0135036 0.00110542 1e-05
0.0136299 0.00110504 1e-05
0.0137562 0.00110465 1e-05
0.0138825 0.00110425 1e-05
0.0140098 0.00110383 1e-05
0.014137 0.00110341 1e-05
0.0142643 0.00110298 1e-05
0.0143915 0.00110254 1e-05
0.0145188 0.0011021 1e-05
0.0146471 0.00110163 1e-05
0.0147753 0.00110116 1e-05
0.0149036 0.00110068 1e-05
0.0150318 0.00110019 1e-05
0.0151601 0.00109969 1e-05
0.0152893 0.00109918 1e-05
0.0154186 0.00109866 1e-05
0.0155478 0.00109813 1e-05
0.0156771 0.00109759 1e-05
0.0158063 0.00109704 1e-05
0.0159366 0.00109648 1e-05
0.0160668 0.00109591 1e-05
0.0161971 0.00109533 1e-05
0.0163274 0.00109474 1e-05
0.0164576 0.00109414 1e-05
0.0165889 0.00109353 1e-05
0.0167201 0.00109291 1e-05
0.0168514 0.00109228 1e-05
0.0169827 0.00109164 1e-05
0.0171139 0.001091 1e-05
0.0172462 0.00109034 1e-05
0.0173785 0.00108967 1e-05
0.0175108 0.00108899 1e-05
0.0176431 0.0010883 1e-05
0.0177754 0.0010876 1e-05
0.0179087 0.00108689 1e-05
0.018042 0.00108617 1e-05
0.0181753 0.00108544 1e-05
0.0183087 0.0010847 1e-05
0.018442 0.00108395 1e-05
0.0185763 0.0010832 1e-05
0.0187107 0.00108243 1e-05
0.018845 0.00108164 1e-05
0.0189794 0.00108084 1e-05
0.0191137 0.00108005 1e-05
0.0192491 0.00107925 1e-05
0.0193845 0.00107843 1e-05
0.0195199 0.00107759 1e-05
0.0196553 0.00107674 1e-05
0.0197907 0.00107589 1e-05
0.0199272 0.00107505 1e-05
0.0200636 0.00107418 1e-05
0.0202001 0.00107328 1e-05
0.0203365 0.00107238 1e-05
0.020473 0.00107149 1e-05
0.0206105 0.00107059 1e-05
0.020748 0.00106967 1e-05
0.0208855 0.00106873 1e-05
0.021023 0.00106778 1e-05
0.0211606 0.00106683 1e-05
0.0212991 0.00106588 1e-05
0.0214377 0.00106491 1e-05
0.0215763 0.00106392 1e-05
0.0217149 0.00106292 1e-05
0.0218535 0.00106192 1e-05
0.0219931 0.00106093 1e-05
0.0221328 0.0010599 1e-05
0.0222724 0.00105886 1e-05
0.0224121 0.00105781 1e-05
0.0225517 0.00105676 1e-05
0.0226925 0.00105571 1e-05
0.0228332 0.00105464 1e-05
0.022974 0.00105355 1e-05
0.0231147 0.00105244 1e-05
0.0232555 0.00105134 1e-05
0.0233973 0.00105025 1e-05
0.0235391 0.00104912 1e-05
0.023681 0.00104797 1e-05
0.0238228 0.00104682 1e-05
0.0239647 0.00104567 1e-05
0.0241076 0.00104452 1e-05
0.0242505 0.00104335 1e-05
0.0243935 0.00104215 1e-05
0.0245364 0.00104094 1e-05
0.0246794 0.00103974 1e-05
0.0248234 0.00103854 1e-05
0.0249675 0.00103731 1e-05
0.0251115 0.00103606 1e-05
0.0252556 0.0010348 1e-05
[...]
POINT_DATA 12040
 FIELD attributes 1
U 3 12040 float
10.0004 	0.00734816 	0 10.0004 	0.00587853 	0 10.0003 	0.0044089 	0 10.0002 	0.00293926 	0 10.0001 	0.00146963 	0 10 	0 	0
10.0001 	0.00087806 	0 10 	0.000702448 	0 10 	0.000526836 	0 10 	0.000351224 	0 10 	0.000175612 	0 10 	0 	0
10.0001 	0.000465909 	0 10.0001 	0.000372536 	0 10.0001 	0.000279164 	0 10 	0.000185791 	0 10 	9.24182e-05 	0 10 	0 	0
10 	0.000265907 	0 10 	0.000212725 	0 10 	0.000159544 	0 10 	0.000106363 	0 10 	5.31814e-05 	0 10 	0 	0
10 	8.02824e-05 	0 10 	6.42259e-05 	0 10 	4.81694e-05 	0 10 	3.2113e-05 	0 10 	1.60565e-05 	0 10 	0 	0
10 	-2.63302e-05 	0 10 	-2.10642e-05 	0 10 	-1.57981e-05 	0 10 	-1.05321e-05 	0 10 	-5.26604e-06 	0 10 	0 	0
10 	-0.000216186 	0 10 	-0.000172949 	0 10 	-0.000129712 	0 10 	-8.64743e-05 	0 10 	-4.32372e-05 	0 10 	0 	0
10 	-0.000377713 	0 10 	-0.000302171 	0 10 	-0.000226628 	0 10 	-0.000151085 	0 10 	-7.55427e-05 	0 10 	0 	0
9.99999 	-0.000426529 	0 9.99999 	-0.000341223 	0 9.99999 	-0.000255917 	0 10 	-0.000170612 	0 10 	-8.53058e-05 	0 10 	0 	0
9.17387 	0.0871272 	0 9.1308 	0.0697018 	0 9.08741 	0.0522761 	0 9.04368 	0.0348501 	0 8.99963 	0.017424 	0 8.95524 	0 	0
10.0004 	0.00734816 	0 10.0024 	0.0152062 	0 10.0045 	0.0222279 	0 10.0065 	0.0292051 	0 10.0086 	0.0361382 	0 10.0136 	0.0463301 	0 10.0164 	0.0402107 	0 10.0208 	0.0401611 	0 10.0253 	0.0401117 	0 10.0297 	0.0400625 	0 10.0356 	0.0445209 	0 10.0385 	0.0378824 	0 10.0425 	0.0378388 	0 10.0464 	0.0377952 	0 10.0504 	0.0377515 	0 10.0545 	0.0408532 	0 10.0567 	0.0387748 	0 10.0592 	0.0400839 	0 10.0616 	0.0413946 	0 10.064 	0.0427069 	0 10.0662 	0.0451653 	0 10.0677 	0.0452762 	0 10.0691 	0.0464786 	0 10.0704 	0.0476822 	0 10.0717 	0.048887 	0 10.0729 	0.0499054 	0 10.0729 	0.0499674 	0 10.073 	0.0500295 	0 10.0731 	0.0500916 	0 10.0731 	0.0501536 	0 10.0732 	0.0502063 	0 10.0738 	0.0508325 	0 10.0743 	0.0514527 	0 10.0748 	0.0520734 	0 10.0753 	0.0526947 	0 10.0758 	0.053152 	0 10.0757 	0.0534469 	0 10.0754 	0.0536365 	0 10.075 	0.0538261 	0 10.0747 	0.0540159 	0 10.0741 	0.0539674 	0 10.0737 	0.0541112 	0 10.0726 	0.0540868 	0 10.0715 	0.0540624 	0 10.0705 	0.054038 	0 10.0689 	0.0537444 	0 10.0685 	0.0538233 	0 10.0669 	0.0536885 	0 10.0653 	0.0535537 	0 10.0637 	0.0534188 	0 10.0611 	0.0529976 	0 10.0611 	0.0530498 	0 10.0591 	0.0528534 	0 10.0571 	0.052657 	0 10.0551 	0.0524606 	0 10.0515 	0.0519651 	0 10.0522 	0.0520153 	0 10.0499 	0.0517919 	0 10.0476 	0.0515684 	0 10.0453 	0.0513449 	0 10.0407 	0.0508142 	0 10.0421 	0.0508833 	0 10.0396 	0.0506539 	0 10.0371 	0.0504245 	0 10.0346 	0.050195 	0 10.0289 	0.0496449 	0 10.0313 	0.0497385 	0 10.0287 	0.0495189 	0 10.0261 	0.0492993 	0 10.0234 	0.0490796 	0 10.0165 	0.0485316 	0 10.0202 	0.0486588 	0 10.0174 	0.04845 	0 10.0147 	0.0482411 	0 10.012 	0.0480322 	0 10.0039 	0.0474769 	0 10.0088 	0.047635 	0 10.0061 	0.0474711 	0 10.0034 	0.0473071 	0 10.0006 	0.0471431 	0 9.99141 	0.0466415 	0 9.99759 	0.0468595 	0 9.99491 	0.0467026 	0 9.99223 	0.0465456 	0 9.98955 	0.0463886 	0 9.97913 	0.0458424 	0 9.98668 	0.0460657 	0 9.98408 	0.0460308 	0 9.98148 	0.0459958 	0 9.97889 	0.0459609 	0 9.9673 	0.0455871 	0 9.97632 	0.0458721 	9.00862e-22 9.97432 	0.045717 	5.83891e-21 9.97232 	0.0455619 	1.07771e-20 9.97031 	0.0454068 	1.57155e-20 9.95825 	0.0447941 	1.33456e-20 9.96848 	0.0448966 	9.177e-20 9.96668 	0.044583 	8.51733e-20 9.96488 	0.0442694 	7.85731e-20 9.96308 	0.0439558 	7.19693e-20 9.9508 	0.0432743 	-1.46049e-20 9.96088 	0.0432305 	-3.95766e-20 9.95913 	0.0429341 	-4.40285e-20 9.95737 	0.0426377 	-4.84789e-20 9.9556 	0.0423412 	-5.29278e-20 9.94353 	0.0417699 	-2.08632e-20 9.95315 	0.0415648 	-1.8355e-20 9.95124 	0.0410008 	-1.2778e-20 9.94933 	0.0404367 	-7.20142e-21 9.94742 	0.0398726 	-1.62527e-21 9.93555 	0.0390859 	6.84988e-21 9.94477 	0.0387691 	-5.58253e-21 9.94266 	0.0379597 	-2.37128e-20 9.94055 	0.0371501 	-4.18449e-20 9.93843 	0.0363404 	-5.99791e-20 9.92666 	0.0352667 	-8.5534e-20 9.93531 	0.0350179 	-1.20671e-19 9.93285 	0.034199 	-1.08621e-19 9.93038 	0.03338 	-9.65631e-20 9.92791 	0.0325607 	-8.44981e-20 9.91615 	0.0313559 	-2.91503e-20 9.92406 	0.0312307 	3.32828e-20 9.92121 	0.0304903 	4.64154e-20 9.91835 	0.0297498 	5.95389e-20 9.91549 	0.029009 	7.26532e-20 9.90379 	0.0277803 	3.58563e-20 9.91087 	0.0276974 	-4.48749e-20 9.90764 	0.0269941 	-5.07824e-20 9.90439 	0.0262904 	-5.66759e-20 9.90115 	0.0255865 	-6.25555e-20 9.88961 	0.0243684 	-3.27822e-22 9.89575 	0.0242479 	5.83166e-20 9.89211 	0.0235516 	4.91534e-20 9.88846 	0.022855 	3.99763e-20 9.8848 	0.0221582 	3.07852e-20 9.87351 	0.0209877 	-2.79733e-20 9.87852 	0.0208023 	-8.10079e-20 9.87442 	0.020113 	-1.02607e-19 9.87031 	0.0194235 	-1.24201e-19 9.8662 	0.0187336 	-1.4579e-19 9.85525 	0.0176431 	-1.33244e-19 9.85889 	0.0173883 	-1.51656e-19 9.85431 	0.0167102 	-1.3955e-19 9.84973 	0.0160319 	-1.27439e-19 9.84514 	0.0153534 	-1.15324e-19 9.83469 	0.0143591 	-8.15019e-20 9.83672 	0.0140419 	-6.84137e-20 9.83166 	0.0133806 	-5.04168e-20 9.82661 	0.012719 	-3.24217e-20 9.82154 	0.0120572 	-1.44281e-20 9.81182 	0.0111628 	1.95807e-21 9.81193 	0.0107779 	0 9.80641 	0.0101289 	0 9.80088 	0.00947968 	0 9.79535 	0.00883015 	0 9.78666 	0.00803091 	0 9.78449 	0.00756423 	-1.62362e-20 9.77852 	0.0069217 	-3.46862e-20 9.77253 	0.00627887 	-5.31379e-20 9.76654 	0.00563573 	-7.15912e-20 9.75923 	0.00493201 	-9.05963e-20 9.75688 	0.0046155 	-9.39283e-20 9.75295 	0.00422647 	-9.43709e-20 9.74902 	0.00383731 	-9.48116e-20 9.74508 	0.00344802 	-9.52505e-20 9.74127 	0.00307151 	-9.5673e-20 9.73871 	0.00282018 	-9.63844e-20 9.73616 	0.00256881 	-9.7096e-20 9.73359 	0.00231737 	-9.78079e-20 9.73103 	0.00206588 	-9.85199e-20 9.72598 	0.00170238 	-9.8511e-20 9.72134 	0.00117267 	-7.35031e-20 9.71439 	0.000540176 	-4.51827e-20 9.70743 	-9.27032e-05 	-1.68714e-20 9.70047 	-0.000725969 	1.14307e-20 9.68463 	-0.00174873 	4.85555e-20 9.68542 	-0.00202271 	4.94129e-20 9.67804 	-0.00264931 	5.0526e-20 9.67065 	-0.00327633 	5.16369e-20 9.66325 	-0.00390377 	5.27458e-20 9.64075 	-0.00517064 	5.59393e-20 9.64683 	-0.00521912 	4.40722e-20 9.63905 	-0.00583976 	3.22027e-20 9.63125 	-0.00646085 	2.03319e-20 9.62344 	-0.00708239 	8.46011e-21 9.59461 	-0.00854932 	-1.05786e-21 9.60569 	-0.00841502 	-7.96518e-21 9.59751 	-0.00903 	-1.92972e-20 9.58932 	-0.00964546 	-3.06281e-20 9.58112 	-0.0102614 	-4.19579e-20 9.54644 	-0.0118767 	-5.33028e-20 9.56211 	-0.01161 	-5.31154e-20 9.55357 	-0.0122215 	-6.03004e-20 9.54502 	-0.0128335 	-6.74824e-20 9.53646 	-0.0134461 	-7.46614e-20 9.49654 	-0.0151555 	-9.3117e-20 9.5163 	-0.0148069 	-1.47366e-19 9.50743 	-0.0154152 	-1.38121e-19 9.49854 	-0.0160241 	-1.28888e-19 9.48965 	-0.0166336 	-1.19667e-19 9.44515 	-0.0183774 	-4.05989e-20 9.46844 	-0.0179983 	-2.59186e-20 9.45926 	-0.0186031 	-1.81652e-20 9.45006 	-0.0192085 	-1.0411e-20 9.44084 	-0.0198144 	-2.65599e-21 9.3925 	-0.021535 	0 9.41873 	-0.0211738 	0 9.40926 	-0.0217761 	0 9.39977 	-0.0223789 	0 9.39027 	-0.0229824 	0 9.33885 	-0.0246296 	0 9.36741 	-0.024333 	1.5509e-21 9.35768 	-0.0249347 	8.76851e-21 9.34793 	-0.0255371 	1.59854e-20 9.33817 	-0.0261401 	2.32015e-20 9.2844 	-0.0276662 	4.07834e-20 9.31471 	-0.0274837 	1.57238e-19 9.30474 	-0.0280853 	1.60094e-19 9.29476 	-0.0286875 	1.62963e-19 9.28477 	-0.0292905 	1.65847e-19 9.22937 	-0.0306434 	4.09696e-20 9.26087 	-0.0306178 	2.18732e-20 9.2507 	-0.0312179 	1.54211e-20 9.24051 	-0.0318188 	8.96816e-21 9.22762 	-0.0324512 	3.74551e-21 9.17393 	-0.0335538 	1.7232e-20 9.20202 	-0.0337629 	1.02602e-19 9.19578 	-0.0343191 	1.12818e-19 9.18541 	-0.0349177 	1.1401e-19 9.16835 	-0.0355568 	9.90182e-20 9.11828 	-0.0363937 	3.92584e-21 9.143 	-0.0368207 	-9.71365e-20 9.14022 	-0.0373791 	-1.27145e-19 9.12969 	-0.037975 	-1.37156e-19 9.10917 	-0.0385701 	-1.26197e-19 9.06256 	-0.0391619 	-6.04014e-20 9.08412 	-0.0397866 	-1.74818e-19 9.08424 	-0.0403899 	-2.14559e-19 9.07357 	-0.040983 	-2.16768e-19 9.05025 	-0.0414896 	-1.70123e-19 9.00693 	-0.041859 	-4.61944e-20 9.02555 	-0.0426606 	-2.44293e-20 9.02804 	-0.0433461 	-1.0689e-20 9.01726 	-0.0439362 	-3.56286e-21 8.99175 	-0.0443162 	0 8.95153 	-0.0444859 	0 8.96741 	-0.0454438 	0 8.97182 	-0.0462429 	0 8.96094 	-0.04683 	0 8.9338 	-0.0470519 	1.99533e-21 8.89647 	-0.0470451 	5.24092e-21 8.90985 	-0.0481393 	2.14637e-21 8.91575 	-0.0490777 	0 8.9048 	-0.0496616 	0 8.87651 	-0.0497005 	2.37717e-21 8.84187 	-0.0495392 	5.62684e-21 8.85295 	-0.0507503 	2.5318e-21 8.86 	-0.0518477 	1.17671e-21 8.84898 	-0.0524287 	7.64756e-21 8.81999 	-0.0522658 	2.40105e-20 8.78782 	-0.0519717 	4.21165e-20 8.79683 	-0.0532818 	1.65109e-19 8.8047 	-0.0545529 	2.81518e-19 8.79365 	-0.055131 	2.84904e-19 8.7643 	-0.0547531 	1.65608e-19 8.73441 	-0.0543462 	4.26178e-20 8.74154 	-0.0557381 	2.47721e-20 8.74863 	-0.0571315 	6.92761e-21 8.73735 	-0.0576672 	2.91522e-22 8.70953 	-0.0571671 	3.4191e-21 8.68173 	-0.0566668 	6.54653e-21 8.68718 	-0.058125 	3.5775e-21 8.69257 	-0.0595848 	6.09259e-22 8.68165 	-0.0600902 	2.05176e-21 8.65574 	-0.0595144 	-1.79811e-21 8.62984 	-0.0589383 	-5.64704e-21 8.63377 	-0.0604485 	-4.82156e-20 8.63765 	-0.0619603 	-9.07879e-20 8.62714 	-0.0624355 	-9.21151e-20 8.60296 	-0.0617994 	-5.31665e-20 8.5788 	-0.0611628 	-1.4216e-20 8.58138 	-0.0627135 	8.31049e-20 8.58391 	-0.0642657 	1.80421e-19 8.57385 	-0.0647125 	1.88802e-19 8.55125 	-0.0640311 	1.07745e-19 8.52867 	-0.0633493 	2.66896e-20 8.53006 	-0.0649369 	1.55243e-20 8.53139 	-0.0665261 	4.3555e-21 8.5218 	-0.066946 	4.84717e-22 8.50064 	-0.066226 	5.01442e-21 8.47949 	-0.0655055 	9.54587e-21 8.47983 	-0.0671172 	4.11773e-21 8.48012 	-0.0687304 	-1.31538e-21 8.47102 	-0.0691236 	-2.04678e-20 8.45115 	-0.0683778 	-6.96038e-20 8.43129 	-0.0676314 	-1.18742e-19 8.43071 	-0.069251 	-2.47357e-19 8.43007 	-0.0708722 	-3.75967e-19 8.42149 	-0.0712404 	-3.61105e-19 8.40278 	-0.0704876 	-2.13682e-19 8.38409 	-0.0697342 	-6.62612e-20 8.3827 	-0.0713526 	5.54809e-20 8.38123 	-0.0729692 	1.76919e-19 8.37288 	-0.0732838 	1.74565e-19 8.35553 	-0.0725729 	8.88828e-20 8.3379 	-0.0718263 	3.44647e-22 8.33579 	-0.0734383 	-8.75334e-20 8.33279 	-0.0748712 	-1.64425e-19 8.32459 	-0.0751919 	-1.73543e-19 8.3094 	-0.074648 	-1.12436e-19 8.29273 	-0.0739168 	-3.6146e-20 8.28999 	-0.0755182 	-2.51076e-20 8.28574 	-0.0767665 	-1.41657e-20 8.27768 	-0.0770949 	-3.4688e-21 8.26437 	-0.0767224 	1.3666e-20 8.24857 	-0.0760132 	3.38923e-20 8.24527 	-0.0776022 	1.24684e-20 8.24002 	-0.0786686 	-2.38274e-21 8.2321 	-0.0790066 	-8.08171e-21 8.22043 	-0.0788068 	-3.04653e-21 8.20541 	-0.0781244 	1.16165e-20 8.20162 	-0.0797003 	-4.62322e-21 8.19558 	-0.0805896 	-1.5292e-20 8.18778 	-0.0809388 	-2.15778e-20 8.17753 	-0.080911 	-3.3511e-20 8.16324 	-0.0802592 	-5.47862e-20 8.15901 	-0.0818217 	5.18555e-20 8.15236 	-0.0825401 	8.52103e-20 8.14469 	-0.0829019 	8.76087e-20 8.13567 	-0.0830441 	6.89911e-20 8.12203 	-0.0824258 	-2.23149e-20 8.11741 	-0.0839752 	6.77344e-20 8.11031 	-0.0845293 	8.4128e-20 8.10275 	-0.0849051 	8.73121e-20 8.0948 	-0.0852145 	8.50488e-20 8.08177 	-0.0846321 	1.01154e-20 8.0768 	-0.0861691 	-6.34794e-22 8.06938 	-0.0865663 	-4.69271e-22 8.06192 	-0.0869576 	-2.44412e-22 8.05445 	-0.0873492 	-1.95754e-23 8.04241 	-0.0868861 	1.78641e-20 8.03685 	-0.088252 	0 8.02951 	-0.0886598 	0 8.02216 	-0.0890679 	0 8.01479 	-0.0894762 	0 8.00394 	-0.0891957 	1.48742e-20 7.99791 	-0.0903922 	0 7.99066 	-0.0908181 	0 7.9834 	-0.0912442 	0 7.97612 	-0.0916706 	0 7.96633 	-0.0915687 	0 7.95994 	-0.0926038 	0 7.95278 	-0.093049 	0 7.9456 	-0.0934945 	0 7.93841 	-0.0939403 	0 7.92953 	-0.0940129 	-8.22734e-21 7.9229 	-0.0948945 	0 7.91581 	-0.0953603 	0 7.90871 	-0.0958264 	0 7.90159 	-0.0962927 	0 7.89351 	-0.0965358 	-1.01053e-20 7.88671 	-0.0972716 	0 7.8797 	-0.097759 	0 7.87266 	-0.0982467 	0 7.86561 	-0.0987346 	0 7.85822 	-0.099144 	-3.62458e-21 7.85439 	-0.099517 	-4.79209e-21 7.8505 	-0.0998026 	-1.04887e-20 7.8466 	-0.100088 	-1.61857e-20 7.84269 	-0.100374 	-2.18831e-20 7.83887 	-0.100653 	-2.74504e-20 7.83569 	-0.10088 	-3.16559e-20 7.83251 	-0.101107 	-3.5861e-20 7.82932 	-0.101334 	-4.0066e-20 7.82612 	-0.101561 	-4.42707e-20 7.82328 	-0.101718 	-4.84784e-20 7.81606 	-0.102316 	-4.71096e-20 7.80896 	-0.102852 	-4.64909e-20 7.80183 	-0.103388 	-4.58695e-20 7.79469 	-0.103924 	-4.52455e-20 7.78867 	-0.104239 	-4.71059e-20 7.78119 	-0.105 	-3.68454e-20 7.77413 	-0.10556 	-2.65723e-20 7.76705 	-0.106121 	-1.62979e-20 7.75994 	-0.106682 	-6.02201e-21 7.75474 	-0.106875 	0 7.747 	-0.107795 	-2.63057e-21 7.73997 	-0.108382 	-7.3544e-21 7.73292 	-0.108969 	-1.20775e-20 7.72585 	-0.109557 	-1.67999e-20 7.72144 	-0.109634 	-2.14882e-20 7.71342 	-0.11071 	-5.01544e-20 7.70642 	-0.111325 	-6.95617e-20 7.6994 	-0.111939 	-8.89706e-20 7.69235 	-0.112554 	-1.08381e-19 7.68871 	-0.112523 	-1.00676e-19 7.68042 	-0.113751 	-7.84843e-20 7.67344 	-0.114393 	-6.75524e-20 7.66643 	-0.115037 	-5.66142e-20 7.6594 	-0.11568 	-4.56698e-20 7.65651 	-0.115547 	-6.74972e-20 7.64795 	-0.116915 	-8.12955e-20 7.64096 	-0.117598 	-6.35746e-20 7.63397 	-0.118271 	-4.54509e-20 7.62748 	-0.118846 	-2.55465e-20 7.62478 	-0.118717 	7.1483e-21 7.61626 	-0.120098 	1.14404e-20 7.60896 	-0.120945 	8.4135e-21 7.60196 	-0.12165 	3.44662e-21 7.59625 	-0.122115 	0 7.59349 	-0.122037 	0 7.58498 	-0.123433 	0 7.57737 	-0.12444 	0 7.57037 	-0.125177 	0 7.56541 	-0.125539 	0 7.56257 	-0.125513 	0 7.55408 	-0.126925 	0 7.54614 	-0.128089 	-6.70113e-21 7.53913 	-0.12886 	-2.40805e-20 7.53491 	-0.129123 	-4.15118e-20 7.53198 	-0.129151 	-5.89681e-20 7.5235 	-0.13058 	-4.01356e-20 7.51523 	-0.131898 	-2.05681e-20 7.5082 	-0.132703 	2.39703e-21 7.50468 	-0.132874 	8.80059e-21 7.50167 	-0.132955 	1.28402e-20 7.49318 	-0.134403 	4.47903e-20 7.48464 	-0.135851 	7.67388e-20 7.4778 	-0.136663 	9.36804e-20 7.47469 	-0.136797 	7.90324e-20 7.47157 	-0.136931 	6.43829e-20 7.46307 	-0.1384 	4.08176e-20 7.45452 	-0.139869 	1.72441e-20 7.4481 	-0.140709 	2.49206e-21 7.44488 	-0.140897 	1.16729e-20 7.44166 	-0.141084 	2.08545e-20 7.43314 	-0.142575 	8.30485e-20 7.42457 	-0.144067 	1.45246e-19 7.41854 	-0.144937 	1.45892e-19 7.41521 	-0.145178 	8.43144e-20 7.41186 	-0.145419 	2.27356e-20 7.40332 	-0.146933 	1.43353e-20 7.39472 	-0.148448 	5.93845e-21 7.38907 	-0.14935 	6.10314e-21 7.38561 	-0.149644 	1.50635e-20 7.38213 	-0.149939 	2.40249e-20 7.37356 	-0.151478 	8.47635e-20 7.36493 	-0.153018 	1.45505e-19 7.35963 	-0.153953 	1.46185e-19 7.35603 	-0.1543 	8.60919e-20 7.35242 	-0.154648 	2.59973e-20 7.3438 	-0.156214 	1.78428e-20 7.33553 	-0.15771 	9.67955e-21 7.33041 	-0.158655 	1.42211e-21 7.32643 	-0.159149 	0 7.32267 	-0.15955 	0 7.314 	-0.161143 	0 7.30645 	-0.162533 	0 7.30122 	-0.163519 	0 7.29675 	-0.164194 	0 7.29284 	-0.164647 	0 7.2841 	-0.166268 	0 7.27726 	-0.167557 	0 7.2719 	-0.168584 	0 7.26695 	-0.169437 	5.21168e-21 7.26286 	-0.169943 	2.07905e-20 7.25406 	-0.171592 	3.60637e-21 7.24789 	-0.172783 	6.66514e-21 7.24239 	-0.173851 	1.51022e-20 7.23696 	-0.17488 	2.38669e-20 7.2327 	-0.175438 	3.64865e-20 7.2239 	-0.177102 	1.19059e-19 7.2183 	-0.178212 	1.23506e-19 7.21266 	-0.179322 	1.27931e-19 7.20698 	-0.180432 	1.32335e-19 7.20229 	-0.181134 	4.912e-20 7.19419 	-0.182695 	1.23679e-19 7.18843 	-0.183846 	1.12017e-19 7.18264 	-0.184997 	1.00333e-19 7.1768 	-0.186148 	8.86266e-20 7.17159 	-0.187033 	3.77429e-20 7.16416 	-0.188492 	3.24837e-20 7.15824 	-0.189684 	3.29539e-20 7.15228 	-0.190876 	3.34292e-20 7.14628 	-0.192068 	3.39095e-20 7.14055 	-0.193134 	4.41943e-20 7.1342 	-0.194406 	4.75139e-20 7.12854 	-0.195552 	4.51979e-20 7.12284 	-0.196698 	4.28684e-20 7.11711 	-0.197844 	4.05253e-20 7.11169 	-0.198921 	3.831e-20 7.11117 	-0.199022 	3.82387e-20 7.11064 	-0.199123 	3.81673e-20 7.11011 	-0.199224 	3.80959e-20 7.10959 	-0.199325 	3.80245e-20 7.10915 	-0.199416 	3.83077e-20 7.10269 	-0.200698 	3.23683e-20 7.09623 	-0.20197 	2.59189e-20 7.08973 	-0.203242 	1.94776e-20 7.08319 	-0.204514 	1.30446e-20 7.07787 	-0.205653 	8.44328e-22 7.07053 	-0.207099 	-2.45256e-22 7.06388 	-0.208411 	-1.73741e-22 7.05718 	-0.209723 	-1.02202e-22 7.05044 	-0.211036 	-3.06372e-23 7.04611 	-0.212093 	0 7.03786 	-0.213703 	-4.80294e-21 7.03101 	-0.215055 	-1.82429e-20 7.02411 	-0.216406 	-3.1677e-20 7.01716 	-0.217758 	-4.51054e-20 7.01383 	-0.218734 	-5.53613e-20 7.00465 	-0.220507 	-4.3449e-20 6.99759 	-0.221897 	-2.85693e-20 6.99047 	-0.223287 	-1.36837e-20 6.98393 	-0.224614 	6.9045e-23 6.98097 	-0.225573 	7.22414e-21 6.97151 	-0.227391 	9.91798e-22 6.96355 	-0.228935 	8.66238e-21 6.95621 	-0.230363 	2.22728e-20 6.9507 	-0.231602 	3.90067e-20 6.94751 	-0.232605 	5.96491e-20 6.93782 	-0.234454 	3.81424e-20 6.92886 	-0.236166 	1.89646e-20 6.92129 	-0.237631 	3.99383e-21 6.91682 	-0.238781 	-2.19939e-21 6.91337 	-0.239826 	-5.44767e-21 6.90346 	-0.241706 	-5.57961e-20 6.89347 	-0.243585 	-1.06088e-19 6.8859 	-0.24506 	-1.07079e-19 6.88224 	-0.246146 	-6.74932e-20 6.87853 	-0.247232 	-2.79075e-20 6.86837 	-0.249141 	-6.80708e-20 6.85815 	-0.25105 	-1.08242e-19 6.85085 	-0.252566 	-1.07952e-19 6.84692 	-0.253691 	-6.58077e-20 6.84295 	-0.254816 	-2.36625e-20 6.83254 	-0.256754 	-6.59448e-20 6.82206 	-0.258691 	-1.08233e-19 6.81502 	-0.260249 	-1.04268e-19 6.81082 	-0.261411 	-5.65012e-20 6.80657 	-0.262574 	-8.73031e-21 6.7959 	-0.264539 	-6.02183e-21 6.78534 	-0.266487 	-3.30603e-21 6.77867 	-0.268054 	-3.78886e-22 6.77389 	-0.2693 	0 6.76937 	-0.270498 	0 6.75843 	-0.272489 	0 6.74901 	-0.274327 	0 6.74207 	-0.275924 	0 6.73611 	-0.277349 	0 6.7313 	-0.278581 	0 6.72008 	-0.280597 	0 6.71183 	-0.282324 	-2.2553e-21 6.7046 	-0.283949 	-5.31042e-21 6.69744 	-0.285553 	-7.7481e-21 6.69232 	-0.286817 	2.38218e-22 6.68122 	-0.288818 	-5.03333e-20 6.67376 	-0.290469 	-4.72084e-20 6.66624 	-0.29212 	-4.40621e-20 6.65866 	-0.29377 	-4.08942e-20 6.65242 	-0.295197 	-5.64782e-21 6.64253 	-0.297078 	-7.27756e-21 6.63477 	-0.298754 	1.21219e-21 6.62695 	-0.300429 	9.70323e-21 6.61907 	-0.302104 	1.81956e-20 6.61154 	-0.303714 	2.42734e-20 6.60763 	-0.304469 	3.231e-20 6.60434 	-0.305164 	3.23863e-20 6.60104 	-0.305859 	3.24596e-20 6.59773 	-0.306554 	3.25301e-20 6.59451 	-0.307229 	3.25958e-20 6.5894 	-0.308234 	3.3472e-20 6.58426 	-0.309239 	3.43453e-20 6.57909 	-0.310244 	3.52156e-20 6.57391 	-0.311248 	3.60831e-20 6.56935 	-0.312175 	3.98423e-20 6.56019 	-0.313978 	4.05036e-20 6.55128 	-0.315693 	3.83627e-20 6.54231 	-0.317408 	3.62268e-20 6.53328 	-0.319123 	3.40959e-20 6.52595 	-0.320627 	1.90381e-20 6.51585 	-0.322596 	3.3138e-20 6.50659 	-0.32433 	2.72087e-20 6.49727 	-0.326063 	2.1291e-20 6.48814 	-0.327765 	1.32429e-20 6.48137 	-0.329184 	-1.4811e-20 6.47067 	-0.331224 	-7.84735e-21 6.46068 	-0.333069 	-6.81961e-21 6.45099 	-0.334818 	-8.70679e-21 6.44269 	-0.336399 	-9.27003e-21 6.43558 	-0.337836 	-8.69945e-21 6.42451 	-0.339887 	-7.37826e-21 6.4135 	-0.341902 	-5.54662e-21 6.40344 	-0.343664 	-4.33238e-23 6.39602 	-0.345119 	5.08335e-21 6.38856 	-0.346572 	1.02106e-20 6.3771 	-0.34863 	6.04192e-21 6.36556 	-0.350688 	1.87716e-21 6.35584 	-0.352449 	0 6.34809 	-0.353915 	0 6.34027 	-0.35538 	0 6.32842 	-0.357444 	0 6.31649 	-0.359508 	0 6.30704 	-0.361286 	0 6.29887 	-0.362773 	0 6.29069 	-0.364248 	0 6.27844 	-0.366316 	0 6.26728 	-0.368255 	1.8834e-21 6.25764 	-0.370018 	6.31884e-21 6.24835 	-0.371683 	1.07616e-20 6.2398 	-0.373165 	1.52166e-20 6.22714 	-0.375235 	1.16781e-20 6.21698 	-0.377022 	1.21614e-20 6.20695 	-0.378787 	1.29693e-20 6.19686 	-0.38055 	1.37832e-20 6.18756 	-0.382118 	1.58555e-20 6.17573 	-0.384053 	3.6e-21 6.16539 	-0.385817 	-2.22531e-21 6.15497 	-0.38758 	-8.03808e-21 6.14448 	-0.389344 	-1.38382e-20 6.13398 	-0.391094 	-1.89155e-20 6.13317 	-0.391221 	-1.86219e-20 6.13247 	-0.391337 	-1.84151e-20 6.13177 	-0.391453 	-1.82082e-20 6.13107 	-0.391569 	-1.80014e-20 6.13037 	-0.391684 	-1.77955e-20 6.12077 	-0.393333 	-1.71767e-20 6.11111 	-0.394982 	-1.65746e-20 6.10139 	-0.39663 	-1.59893e-20 6.09161 	-0.398278 	-1.54209e-20 6.08191 	-0.399775 	-4.53728e-21 6.07169 	-0.