y,U_0,U_1,U_2
3.032,0.00633536,-3.40983e-06,3.12029e-24
3.02776,0.0129524,-1.36471e-05,1.71699e-23
3.0233,0.0191895,-3.03947e-05,-2.35898e-23
3.0186,0.024213,-5.09429e-05,-7.64891e-24
3.01367,0.027929,-7.31452e-05,2.11829e-23
3.00851,0.0306949,-9.62172e-05,-4.5947e-23
3.00312,0.0328137,-0.000119648,-6.76413e-24
2.99748,0.0344767,-0.000143033,1.16054e-23
2.99159,0.0358062,-0.000166147,-2.89897e-24
2.98545,0.0368848,-0.000188909,-5.85909e-23
2.97904,0.0377709,-0.000211327,3.07866e-23
2.97235,0.0385068,-0.000233464,6.95807e-23
2.96538,0.0391235,-0.000255412,-8.60873e-23
2.95812,0.0396443,-0.000277277,-9.44708e-23
2.95056,0.0400867,-0.000299168,4.61644e-23
2.94268,0.0404641,-0.000321191,1.03906e-22
2.93448,0.0407865,-0.000343449,3.78669e-23
2.92595,0.0410621,-0.000366037,-1.73547e-23
2.91707,0.041297,-0.000389044,-4.15519e-23
2.90784,0.041496,-0.000412554,1.43087e-25
2.89825,0.0416632,-0.000436644,3.09472e-23
2.88828,0.0418017,-0.000461388,3.10032e-23
2.87793,0.0419138,-0.000486857,1.67736e-25
2.86719,0.0420017,-0.000513119,1.47658e-23
2.85604,0.042067,-0.000540238,1.46382e-23
2.84447,0.042111,-0.000568279,-7.32847e-23
2.83249,0.0421348,-0.000597305,-1.08712e-22
2.82007,0.0421392,-0.00062738,1.42321e-22
2.80721,0.042125,-0.000658567,7.54137e-24
2.79389,0.0420927,-0.000690929,-6.84036e-23
2.78012,0.0420427,-0.00072453,1.01878e-22
2.76589,0.0419754,-0.000759435,-3.72842e-23
2.75118,0.0418911,-0.000795708,-2.11511e-23
2.73599,0.0417899,-0.000833415,3.60858e-23
2.72032,0.041672,-0.000872621,-6.66315e-23
2.70416,0.0415376,-0.000913392,-3.58586e-23
2.6875,0.0413865,-0.000955793,1.01943e-22
2.67035,0.041219,-0.000999885,1.93632e-23
2.6527,0.0410349,-0.00104573,-1.4311e-22
2.63455,0.0408344,-0.00109339,7.25389e-23
2.61589,0.0406173,-0.00114291,1.5294e-22
2.59674,0.0403837,-0.00119434,-2.31655e-22
2.57709,0.0401336,-0.00124772,2.19904e-23
2.55695,0.039867,-0.00130309,8.88125e-23
2.53632,0.0395838,-0.00136047,-5.74516e-23
2.51521,0.0392842,-0.00141986,8.16271e-23
2.49362,0.0389682,-0.00148127,-5.12667e-23
2.47156,0.038636,-0.00154466,-1.49412e-22
2.44905,0.0382877,-0.00161,-4.76334e-24
2.4261,0.0379236,-0.00167723,1.43843e-22
2.40272,0.0375439,-0.00174626,-3.92489e-23
2.37892,0.037149,-0.00181697,-2.22206e-23
2.35472,0.0367395,-0.00188922,-6.20271e-24
2.33014,0.0363159,-0.00196284,-4.06699e-24
2.3052,0.0358788,-0.0020376,7.448e-23
2.27992,0.0354289,-0.00211324,-1.70812e-25
2.25432,0.0349664,-0.00218962,8.49604e-23
2.22843,0.0344902,-0.00226678,6.0096e-23
2.20226,0.0339984,-0.00234497,-5.98043e-23
2.17584,0.0334888,-0.00242453,-6.33069e-23
2.14921,0.0329598,-0.00250568,-1.28138e-22
2.12238,0.03241,-0.00258856,1.27349e-24
2.09539,0.0318383,-0.00267317,1.03795e-22
2.06826,0.0312441,-0.00275938,-8.34939e-23
2.04103,0.0306272,-0.0028469,-3.41673e-24
2.01372,0.0299882,-0.00293537,8.83402e-23
1.98636,0.0293284,-0.00302436,7.6462e-23
1.95899,0.0286491,-0.00311339,1.3181e-25
1.93163,0.0279525,-0.00320198,-2.3088e-22
1.90432,0.0272403,-0.00328968,-1.66955e-22
1.87709,0.0265142,-0.00337609,1.62221e-22
1.84995,0.0257754,-0.00346091,3.17233e-22
1.82296,0.0250246,-0.00354387,-3.40596e-24
1.79612,0.0242626,-0.0036247,-1.56343e-22
1.76948,0.023491,-0.00370299,1.63667e-22
1.74306,0.0227138,-0.00377803,9.49404e-24
1.71688,0.0219389,-0.00384877,-1.63841e-22
1.69097,0.0211783,-0.00391394,-1.38447e-22
1.66535,0.0204466,-0.00397242,1.09655e-22
1.64006,0.019757,-0.00402351,1.45933e-22
1.6151,0.0191142,-0.00406704,-1.08083e-22
1.5905,0.0185115,-0.00410357,1.37354e-22
1.56629,0.0179369,-0.00413393,-1.68116e-23
1.54247,0.0173827,-0.00415879,-1.43355e-22
1.51906,0.0168471,-0.00417862,1.13804e-23
1.49609,0.0163304,-0.00419388,1.08547e-23
1.47355,0.0158335,-0.00420492,-1.92262e-23
1.45147,0.015357,-0.00421209,-2.83534e-23
1.42986,0.0149014,-0.00421576,4.77433e-23
1.40872,0.0144669,-0.00421633,1.40528e-22
1.38806,0.0140538,-0.00421418,-1.41425e-22
1.3679,0.013662,-0.00420972,-1.39533e-22
1.34822,0.0132915,-0.00420336,4.49015e-22
1.32904,0.0129419,-0.0041955,-1.49171e-22
1.31036,0.0126131,-0.00418653,-3.30223e-22
1.29218,0.0123043,-0.00417684,-1.24383e-23
1.27451,0.0120152,-0.00416678,-1.92241e-22
1.25732,0.0117451,-0.00415671,1.44172e-22
1.24064,0.0114932,-0.00414694,-1.36042e-22
1.22444,0.0112587,-0.00413778,-2.56149e-23
1.20874,0.0110408,-0.00412948,1.0049e-21
1.19351,0.0108385,-0.00412229,6.40277e-23
1.17876,0.010651,-0.0041164,-2.09436e-22
1.16448,0.0104773,-0.00411199,4.33722e-22
1.15066,0.0103163,-0.00410917,-4.8123e-22
1.13729,0.0101671,-0.00410803,-4.54452e-22
1.12437,0.0100285,-0.00410863,-1.00635e-21
1.11188,0.00989966,-0.00411096,-5.89406e-22
1.09981,0.0097794,-0.00411501,4.32706e-22
1.08816,0.00966671,-0.0041207,3.31713e-23
1.07691,0.00956057,-0.00412791,7.85223e-23
1.06606,0.00945994,-0.00413648,5.58179e-22
1.05559,0.00936381,-0.00414624,6.18163e-22
1.04549,0.00927119,-0.00415695,-6.40843e-22
1.03576,0.00918109,-0.00416834,-7.08048e-22
1.02638,0.00909255,-0.00418011,7.14499e-22
1.01734,0.00900465,-0.00419193,7.1384e-22
1.00863,0.00891646,-0.00420343,7.9196e-22
1.00025,0.00882711,-0.00421421,1.71005e-22
0.992173,0.00873572,-0.00422386,-1.70479e-21
0.984401,0.00864145,-0.00423191,7.48077e-22
0.976921,0.00854351,-0.00423789,1.82709e-21
0.969724,0.00844108,-0.0042413,-5.26374e-23
0.962799,0.00833339,-0.0042416,-1.27598e-21
0.95614,0.00821967,-0.00423825,4.61034e-23
0.949735,0.00809918,-0.00423067,-8.7582e-22
0.943578,0.00797114,-0.00421825,-1.13257e-21
0.937659,0.0078348,-0.00420034,1.23003e-21
0.93197,0.00768934,-0.00417625,-3.07951e-26
0.926504,0.0075339,-0.00414523,-2.14686e-25
0.921252,0.00736751,-0.00410642,-1.2501e-25
0.916208,0.00718906,-0.00405887,0
0.911364,0.00699725,-0.00400147,-1.44632e-21
0.906712,0.00679046,-0.00393286,-5.03348e-21
0.902247,0.00656665,-0.0038514,4.71525e-21
0.897961,0.00632312,-0.00375495,3.47614e-21
0.893848,0.00605621,-0.00364066,-9.63993e-21
0.8899,0.00576075,-0.00350463,-7.46806e-22
0.886114,0.00542929,-0.00334128,8.74456e-21
0.882481,0.00505086,-0.00314252,5.81125e-21
0.878997,0.00460946,-0.00289663,9.34164e-21
0.875655,0.00408286,-0.00258753,-2.34467e-21
0.87245,0.00344706,-0.00219819,-4.57257e-20
0.869377,0.00270167,-0.00172837,2.90317e-20
0.866434,0.00191066,-0.00122254,9.29531e-21
0.863613,0.00118766,-0.000759686,-1.59327e-20
0.86091,0.000617513,-0.000397798,6.13946e-20
0.858318,0.000224673,-0.000147735,1.74353e-20
0.855829,0,0,0
0.855829,0,0,0
