/*--------------------------------*- C++ -*----------------------------------*\
  =========                 |
  \\      /  F ield         | OpenFOAM: The Open Source CFD Toolbox
   \\    /   O peration     | Website:  https://openfoam.org
    \\  /    A nd           | Version:  9
     \\/     M anipulation  |
\*---------------------------------------------------------------------------*/
FoamFile
{
    format      ascii;
    class       volTensorField;
    location    "3000";
    object      grad(U);
}
// * * * * * * * * * * * * * * * * * * * * * * * * * * * * * * * * * * * * * //

dimensions      [0 0 -1 0 0 0 0];

internalField   nonuniform List<tensor> 
14751
(
(-1.05166e-05 -8.38905e-07 -1.90131e-25 -0.912006 -4.2947e-05 1.52661e-26 0 0 0)
(5.27198e-06 -2.46918e-07 -1.46752e-26 -0.910005 2.11152e-05 -3.66892e-33 0 0 0)
(2.56454e-05 -1.06872e-06 1.6066e-26 -0.909899 -8.66319e-05 -7.26906e-22 -6.61491e-25 -4.21961e-29 2.64507e-52)
(7.1509e-05 -5.16775e-07 -4.05315e-26 -0.906031 -0.00011859 -2.95889e-23 6.61466e-25 4.21945e-29 -2.64497e-52)
(9.80777e-05 -7.14458e-07 1.02876e-24 -0.902252 -0.000175546 3.05782e-21 -1.312e-24 -1.63965e-28 6.405e-47)
(0.000143868 -5.31038e-07 5.52068e-26 -0.896102 -0.000227962 7.06534e-23 4.20801e-23 1.05351e-26 -3.27842e-45)
(0.000173869 -5.23061e-07 -1.07041e-24 -0.888734 -0.000264985 3.50702e-23 0 0 0)
(0.000206256 -4.85844e-07 -3.34974e-27 -0.880122 -0.000306356 -5.62221e-25 -3.19532e-25 -6.58715e-29 -4.40978e-49)
(0.000236781 -3.80778e-07 -1.0232e-26 -0.870153 -0.000340163 -7.16191e-21 3.82517e-27 -6.15094e-30 -1.61469e-49)
(0.00026177 -2.96066e-07 -3.09082e-27 -0.859136 -0.00036871 4.46984e-22 -3.0725e-25 -8.15878e-29 -7.02306e-49)
(0.000283581 -2.23876e-07 4.64904e-24 -0.847195 -0.000391179 -1.5235e-25 9.1625e-27 -7.23258e-30 1.50201e-46)
(0.000301131 -1.5688e-07 5.86305e-27 -0.834507 -0.00040968 -3.63898e-23 7.65455e-23 3.74375e-26 3.16219e-45)
(0.00031532 -7.03696e-08 -4.78719e-24 -0.821182 -0.000422357 1.45194e-28 0 0 0)
(0.000325768 -5.80539e-09 -5.51602e-24 -0.807445 -0.000429711 -4.09344e-24 -1.16668e-24 -3.36622e-28 -3.67616e-46)
(0.000332658 7.46314e-08 -2.81912e-24 -0.793384 -0.000433812 1.02574e-20 -7.10231e-23 -3.91358e-26 9.33683e-43)
(0.000336089 1.45201e-07 5.72099e-24 -0.779161 -0.000431401 1.53613e-21 -3.54479e-23 -1.96266e-26 6.98861e-44)
(0.000336457 2.06912e-07 2.7987e-24 -0.764926 -0.000427367 -1.31118e-20 1.10174e-24 3.08988e-28 1.33013e-50)
(0.00033401 2.58241e-07 -3.66955e-24 -0.750755 -0.000417745 -3.51218e-21 -1.10176e-24 -3.08995e-28 -1.33016e-50)
(0.000328961 2.86337e-07 -3.38154e-24 -0.736809 -0.000407051 3.54445e-21 -3.35211e-23 -1.85187e-26 1.61255e-43)
(0.000322332 3.09542e-07 3.46275e-24 -0.723125 -0.000392978 2.98388e-23 -3.28985e-23 -1.78785e-26 1.35752e-45)
(0.000313147 3.07884e-07 -4.57568e-25 -0.709837 -0.000377518 1.94674e-21 0 0 0)
(0.000303145 3.00475e-07 2.43003e-25 -0.696966 -0.000360774 -1.9252e-21 -3.27067e-23 -1.66279e-26 -8.78325e-44)
(0.000291594 2.87892e-07 3.79344e-24 -0.684581 -0.000343312 5.8206e-24 9.98209e-25 2.14483e-28 2.45792e-46)
(0.000279458 2.72924e-07 9.62481e-27 -0.672717 -0.000325033 -6.05623e-24 -9.61358e-25 -1.78316e-28 1.33504e-50)
(0.000266194 2.55374e-07 8.42433e-24 -0.66143 -0.000306516 6.06848e-24 9.61265e-25 1.78299e-28 -1.33491e-50)
(0.000252207 2.36367e-07 -2.4927e-25 -0.650726 -0.000287589 -6.8198e-23 5.92095e-23 2.61676e-26 6.20533e-45)
(0.000238304 2.19659e-07 -6.13596e-24 -0.640634 -0.000269143 1.50943e-20 0 0 0)
(0.000223654 2.03955e-07 -9.63851e-27 -0.631163 -0.000250409 1.95526e-20 1.43574e-23 5.69617e-27 -4.44773e-43)
(0.000209348 1.86911e-07 -2.07937e-24 -0.622313 -0.000232331 6.28881e-29 0 0 0)
(0.00019476 1.7277e-07 3.71632e-27 -0.614096 -0.000214368 -7.67834e-21 0 0 0)
(0.000180292 1.58444e-07 4.77986e-27 -0.606506 -0.000196906 -9.87575e-21 0 0 0)
(0.000165942 1.44691e-07 -4.04701e-27 -0.599538 -0.000179839 8.75976e-21 0 0 0)
(0.000151824 1.31699e-07 1.28135e-25 -0.593186 -0.000163379 -2.62609e-30 0 0 0)
(0.000137855 1.20449e-07 -1.27699e-25 -0.587437 -0.000147358 -1.07415e-21 4.15386e-25 3.00968e-29 1.5879e-51)
(0.000124317 1.11645e-07 4.02516e-24 -0.582288 -0.000131909 1.07245e-20 -4.15382e-25 -3.00964e-29 -1.58788e-51)
(0.000110959 1.00432e-07 -3.97594e-24 -0.577717 -0.000116979 -1.62458e-21 2.6691e-23 5.34521e-27 7.39081e-44)
(9.845e-05 8.74104e-08 -8.06927e-24 -0.573697 -0.000103003 5.57246e-22 -2.65081e-23 -4.70934e-27 2.53537e-44)
(8.62716e-05 7.75745e-08 4.10817e-24 -0.570217 -8.97882e-05 4.15171e-21 -2.5942e-23 -4.08491e-27 1.88882e-43)
(7.50981e-05 7.34714e-08 3.91207e-24 -0.567244 -7.75232e-05 -4.40028e-29 0 0 0)
(6.43305e-05 6.84482e-08 2.8332e-26 -0.564741 -6.58539e-05 -2.33728e-31 0 0 0)
(5.42793e-05 5.28043e-08 -3.07206e-26 -0.562665 -5.50307e-05 -4.77016e-22 9.88834e-26 2.90008e-30 2.71526e-53)
(4.44174e-05 5.04054e-08 -5.3534e-26 -0.561019 -4.49121e-05 4.77182e-22 -9.88927e-26 -2.90035e-30 -2.71551e-53)
(3.38024e-05 4.83074e-08 5.00331e-26 -0.559802 -3.39239e-05 -1.60921e-21 -9.82532e-26 -2.10133e-30 2.06043e-53)
(2.36149e-05 4.40517e-08 3.91776e-26 -0.559028 -2.36297e-05 -2.25172e-22 9.82573e-26 2.10142e-30 -2.06052e-53)
(1.31417e-05 4.6396e-08 -3.92927e-26 -0.558702 -1.29748e-05 3.07659e-25 4.89796e-26 6.8527e-31 3.12694e-54)
(3.16767e-06 4.22411e-08 -1.82986e-26 -0.5588 -2.83171e-06 -3.07727e-25 -4.89801e-26 -6.85277e-31 -3.12698e-54)
(-6.66915e-06 3.88267e-08 -1.43035e-24 -0.559319 7.10039e-06 -1.42176e-25 -2.44968e-26 -1.78897e-31 -2.92627e-48)
(-1.62931e-05 3.67814e-08 5.97987e-27 -0.560247 1.66846e-05 3.93744e-22 -1.27197e-23 3.79712e-28 8.9596e-45)
(-2.56929e-05 3.30884e-08 1.44413e-24 -0.561578 2.61155e-05 -1.08276e-30 0 0 0)
(-3.45571e-05 2.81239e-08 -1.25109e-27 -0.563294 3.4794e-05 3.07697e-26 6.16286e-27 -4.74393e-33 -3.74011e-56)
(-4.33529e-05 2.82667e-08 -3.4591e-27 -0.565366 4.32947e-05 3.97975e-23 -6.16293e-27 4.74398e-33 3.74015e-56)
(-5.24189e-05 2.98416e-08 3.49474e-27 -0.567806 5.22125e-05 -3.98649e-23 -1.24226e-26 6.81833e-32 -2.06591e-55)
(-6.17852e-05 2.87062e-08 6.10498e-27 -0.570634 6.12885e-05 5.47284e-26 1.24225e-26 -6.81826e-32 2.06589e-55)
(-7.0922e-05 2.70024e-08 9.56649e-25 -0.573842 7.01219e-05 5.41276e-22 2.51133e-26 -2.49015e-31 -1.94529e-48)
(-7.99521e-05 2.45191e-08 -1.71693e-26 -0.577425 7.88663e-05 -1.01142e-21 1.31604e-23 -1.79436e-27 2.30053e-44)
(-8.88491e-05 2.38192e-08 -9.52478e-25 -0.581376 8.73067e-05 -1.10901e-22 -1.01458e-25 1.29083e-30 3.79026e-48)
(-9.77133e-05 2.35447e-08 1.33461e-26 -0.585689 9.58455e-05 8.54313e-22 5.0908e-26 -6.93604e-31 2.89853e-50)
(-0.000106302 2.07568e-08 -6.63462e-27 -0.590362 0.000104031 1.00471e-22 0 0 0)
(-0.000114901 1.11951e-08 5.97341e-28 -0.595377 0.000112043 -1.20675e-21 0 0 0)
(-0.000122917 9.58994e-09 -2.00833e-24 -0.600732 0.000119326 -1.60897e-22 0 0 0)
(-0.000131227 6.52917e-09 -3.40821e-24 -0.606425 0.000126978 1.37656e-22 -5.51786e-23 1.15537e-26 1.25253e-44)
(-0.00013878 9.90416e-09 1.99647e-24 -0.612427 0.000133616 -9.33245e-23 -1.11234e-22 2.43113e-26 -1.69279e-44)
(-0.000146545 2.6183e-08 3.39973e-24 -0.61875 0.000141179 -2.99004e-25 -2.15127e-25 4.11507e-30 -5.52439e-47)
(-0.000154051 1.85031e-08 8.76796e-27 -0.625368 0.000148465 1.27182e-22 -2.19998e-25 4.84935e-30 -1.7608e-49)
(-0.000160765 8.42976e-09 3.04108e-25 -0.632259 0.000154771 -1.27298e-22 -2.25199e-25 5.12861e-30 9.64201e-48)
(-0.00016756 9.44905e-09 -1.45725e-25 -0.639427 0.000160949 -1.75863e-24 2.99864e-23 -7.34264e-27 6.57851e-47)
(-0.000173815 1.31538e-08 -2.96261e-25 -0.646852 0.000166902 9.17271e-25 -2.98791e-23 7.60349e-27 4.6489e-47)
(-0.000179915 1.20258e-08 1.43362e-25 -0.654521 0.000172673 2.85522e-30 0 0 0)
(-0.000185339 1.00095e-08 5.61514e-27 -0.662406 0.00017781 -1.37112e-25 4.68009e-25 -1.14321e-29 9.44225e-53)
(-0.000190591 1.17051e-08 5.56242e-27 -0.670506 0.000182844 -5.05767e-22 -4.6801e-25 1.14321e-29 -9.44228e-53)
(-0.000195368 1.53237e-08 -5.61515e-27 -0.678797 0.000187425 -1.48762e-31 0 0 0)
(-0.000199826 1.93935e-08 3.31183e-29 -0.687265 0.000192007 2.73705e-22 0 0 0)
(-0.000203834 2.31693e-08 -3.00627e-29 -0.695894 0.000196138 -2.73297e-22 0 0 0)
(-0.000207504 3.14376e-08 -9.66792e-26 -0.704664 0.000200199 -3.33458e-30 0 0 0)
(-0.000211003 4.17486e-08 5.63147e-26 -0.713566 0.000204314 7.89148e-25 4.05796e-24 -1.1619e-27 -4.48777e-48)
(-0.000214201 4.92187e-08 2.19071e-25 -0.722591 0.000208506 1.36389e-24 -1.02791e-24 3.52588e-29 1.15457e-47)
(-0.000217221 6.49679e-08 -1.82729e-25 -0.731724 0.000212432 -8.42293e-25 -4.17525e-24 1.21227e-27 -1.65956e-47)
(-0.000219933 7.13413e-08 8.49275e-27 -0.740961 0.000217148 -3.05279e-24 2.0981e-24 -8.35166e-29 -2.88708e-50)
(-0.00022247 9.73177e-08 1.94942e-25 -0.750281 0.000220615 -4.45296e-21 -4.25238e-24 1.24832e-27 -2.5336e-44)
(-0.000225017 1.12087e-07 -2.78716e-25 -0.759686 0.00022665 1.66368e-24 -1.07053e-24 5.0348e-29 1.29216e-47)
(-0.000226863 1.31325e-07 -6.9115e-26 -0.769166 0.000229856 1.20891e-24 4.37414e-24 -1.30716e-27 -6.87492e-48)
(-0.000228947 1.62577e-07 1.48496e-25 -0.778678 0.000236128 5.03311e-21 0 0 0)
(-0.000230713 1.74423e-07 7.93246e-26 -0.788271 0.000240864 -5.15265e-21 0 0 0)
(-0.00023208 1.92569e-07 -7.52069e-26 -0.797872 0.000246587 5.2352e-21 -1.1444e-24 1.00271e-28 5.00568e-51)
(-0.000233148 1.98015e-07 -7.99481e-26 -0.8075 0.000251745 -1.90452e-24 1.14443e-24 -1.00273e-28 -5.00578e-51)
(-0.000233446 1.92945e-07 7.98706e-26 -0.817116 0.000256844 2.55538e-30 0 0 0)
(-0.00023265 1.88459e-07 0 -0.826682 0.00026029 0 0 0 0)
(-0.000231182 1.73295e-07 1.08379e-26 -0.83615 0.000263962 5.13158e-21 0 0 0)
(-0.000228373 1.66674e-07 2.37707e-24 -0.845474 0.000265002 4.99173e-21 0 0 0)
(-0.000224329 1.34663e-07 -1.81906e-26 -0.854612 0.000266726 -1.92384e-23 -7.80694e-23 2.43114e-26 -1.71256e-45)
(-0.000216792 7.73622e-08 -2.36663e-24 -0.863449 0.000262308 -1.38583e-22 3.08458e-25 -4.20691e-29 -3.79406e-47)
(-0.000207853 6.51366e-08 3.57647e-27 -0.871842 0.000256909 1.37934e-22 0 0 0)
(-0.000196379 -5.22218e-08 -6.8469e-26 -0.879833 0.00025033 -1.49057e-23 3.18483e-25 -4.35205e-29 1.33696e-48)
(-0.000180987 -6.72765e-08 4.69687e-26 -0.887113 0.000231212 1.63937e-23 4.0836e-24 -1.18648e-27 -9.5722e-47)
(-0.000165789 -1.16609e-07 5.7312e-26 -0.893703 0.000220972 3.16555e-21 -2.22246e-24 5.84003e-28 9.00254e-45)
(-0.0001402 -2.8139e-07 -2.8205e-25 -0.89951 0.000188097 -8.84179e-23 3.24082e-25 -4.05496e-29 -3.53619e-49)
(-0.000100916 -6.54899e-07 1.29436e-26 -0.903843 0.000149805 2.00884e-21 2.07241e-23 -3.4204e-27 -4.5694e-44)
(-0.000102517 1.70227e-07 4.39533e-25 -0.906691 0.000100637 7.58226e-26 -1.64632e-25 1.27668e-29 -1.98235e-48)
(-8.8643e-05 -8.95508e-07 -3.25536e-27 -0.91063 0.000155311 -1.63551e-24 -4.14284e-23 7.0658e-27 -7.44133e-47)
(2.31482e-05 -5.16511e-06 2.72289e-25 -0.867362 -9.13515e-05 -8.10676e-26 -2.53379e-21 -1.92848e-25 -9.67452e-47)
(9.49464e-05 -1.70991e-06 -3.27327e-23 -0.864388 -4.24129e-05 1.57024e-23 0 0 0)
(0.000147687 -5.16232e-06 -1.45457e-24 -0.861983 -0.000180904 6.95695e-22 -4.92129e-21 -7.52118e-25 7.13372e-44)
(0.000268743 -3.45539e-06 1.70355e-22 -0.857244 -0.000253753 4.31282e-21 -1.18904e-22 -1.5519e-26 -6.71275e-44)
(0.000342041 -4.17006e-06 4.25847e-24 -0.852045 -0.000346302 -3.08542e-21 9.71118e-21 2.92527e-24 1.62511e-42)
(0.000453827 -3.46135e-06 -1.36485e-22 -0.84533 -0.000449988 1.8349e-22 1.37395e-22 3.23994e-26 -5.41996e-43)
(0.000536121 -2.97039e-06 -2.0867e-24 -0.837602 -0.000525433 1.99221e-24 5.78907e-23 1.8567e-26 -3.58247e-45)
(0.000619106 -2.8635e-06 -3.28826e-22 -0.828948 -0.000606562 1.47179e-24 0 0 0)
(0.000697417 -2.39176e-06 2.42991e-23 -0.819345 -0.000678047 -1.93902e-20 -9.93799e-21 -6.00615e-24 -1.5412e-40)
(0.00076179 -1.96507e-06 3.26054e-22 -0.809002 -0.000739162 8.33721e-22 4.44447e-22 2.11505e-25 2.35049e-42)
(0.000817427 -1.58271e-06 -3.35552e-23 -0.798031 -0.000789841 2.8373e-20 0 0 0)
(0.000861067 -1.20994e-06 -7.26373e-24 -0.78659 -0.000831176 3.30562e-20 -6.97345e-23 -3.42343e-26 -3.04086e-45)
(0.000896123 -7.9188e-07 6.72512e-24 -0.774783 -0.000862945 -1.75933e-22 0 0 0)
(0.000921153 -4.66588e-07 4.72671e-22 -0.762759 -0.000885077 4.13555e-20 0 0 0)
(0.000936599 -1.05025e-07 8.67173e-23 -0.750618 -0.000900049 -5.37267e-20 7.82344e-21 7.04967e-24 2.66223e-40)
(0.000943554 1.93969e-07 -1.09115e-21 -0.73846 -0.000904396 2.90254e-21 8.26794e-22 5.31219e-25 -8.35621e-42)
(0.00094169 4.58612e-07 -2.33071e-22 -0.726405 -0.00090397 -3.0126e-20 -8.23112e-21 -7.49951e-24 -2.44034e-40)
(0.000932712 7.09445e-07 7.7943e-22 -0.714511 -0.000894018 -6.28727e-21 -1.49952e-21 -9.88719e-25 1.69883e-43)
(0.000916401 8.83452e-07 1.68801e-22 -0.7029 -0.000880096 4.27723e-22 1.52365e-21 1.00143e-24 -3.12938e-43)
(0.000896029 1.08084e-06 -6.88717e-23 -0.691601 -0.000860144 -4.90859e-20 2.92104e-23 1.58742e-26 -1.20533e-45)
(0.000868919 1.20548e-06 -1.00067e-22 -0.680703 -0.000835345 5.10369e-20 7.04915e-22 4.46938e-25 -8.0979e-44)
(0.000839271 1.30601e-06 -9.11992e-23 -0.670229 -0.00080699 -1.06427e-22 -6.7457e-22 -4.30953e-25 1.5794e-43)
(0.00080551 1.39033e-06 8.56984e-23 -0.660228 -0.000775435 -5.91845e-24 0 0 0)
(0.000770157 1.45793e-06 -2.13097e-29 -0.650723 -0.000741305 5.30752e-24 0 0 0)
(0.000731647 1.50705e-06 -1.69193e-23 -0.641748 -0.000704656 2.95206e-20 0 0 0)
(0.000691294 1.52247e-06 7.14769e-22 -0.633312 -0.000666 -2.08345e-22 -5.16082e-23 -2.28083e-26 -5.4087e-45)
(0.000650837 1.53147e-06 9.35305e-22 -0.625433 -0.000626935 2.06524e-20 6.25371e-21 4.69379e-24 -1.73172e-40)
(0.000608441 1.52891e-06 -7.10796e-22 -0.618115 -0.000586338 -1.67575e-20 7.40579e-21 4.99342e-24 -2.42666e-41)
(0.000566807 1.51111e-06 -1.29141e-21 -0.611359 -0.000546098 3.06011e-20 0 0 0)
(0.000524465 1.49712e-06 -4.70699e-22 -0.605166 -0.00050528 6.73742e-21 -3.00397e-21 -1.88308e-24 6.25771e-42)
(0.000482351 1.47023e-06 7.8024e-22 -0.599534 -0.000464669 8.36139e-21 -3.56999e-21 -1.97424e-24 -6.37865e-42)
(0.000440532 1.43761e-06 4.70173e-22 -0.594455 -0.000424255 -8.47188e-21 3.23315e-21 1.68592e-24 2.71238e-42)
(0.000399276 1.4022e-06 -4.65306e-22 -0.589923 -0.000384444 -3.22939e-20 0 0 0)
(0.0003585 1.36653e-06 5.1158e-22 -0.585927 -0.000345115 3.62982e-21 -2.89221e-22 -8.67451e-26 3.26459e-42)
(0.000318887 1.32426e-06 -3.02907e-23 -0.582458 -0.00030663 -7.98202e-21 3.724e-21 1.38582e-24 -9.81275e-42)
(0.000279772 1.26589e-06 -4.7993e-22 -0.579502 -0.000269107 -2.13821e-21 -4.51079e-22 -1.15972e-25 2.79441e-42)
(0.000242959 1.19901e-06 2.8534e-22 -0.577035 -0.000233277 1.09986e-21 1.6439e-22 3.81436e-26 1.58578e-43)
(0.000207303 1.12847e-06 -3.12159e-23 -0.575044 -0.000199024 -2.04335e-21 1.56807e-21 4.04834e-25 -2.34664e-42)
(0.000174492 1.05933e-06 -2.02887e-22 -0.573497 -0.000167039 4.26556e-25 0 0 0)
(0.000142978 9.95626e-07 -2.30942e-23 -0.572364 -0.000136969 6.87016e-21 0 0 0)
(0.000113777 9.39762e-07 2.28432e-23 -0.571608 -0.000108878 7.64469e-22 -1.38687e-22 -1.53543e-26 3.49187e-47)
(8.52035e-05 9.5072e-07 -5.41309e-23 -0.571216 -8.12575e-05 -7.6386e-22 1.38602e-22 1.53449e-26 -3.48971e-47)
(5.49239e-05 9.61568e-07 -3.37228e-23 -0.57118 -5.24252e-05 1.37487e-21 -6.93262e-22 -5.48526e-26 1.59088e-43)
(2.56413e-05 9.50817e-07 7.69768e-23 -0.57151 -2.40572e-05 -3.05839e-23 -6.90067e-23 -4.30552e-27 -1.54366e-43)
(-4.42123e-06 9.40854e-07 1.08641e-23 -0.572212 4.61301e-06 -2.97094e-21 0 0 0)
(-3.3156e-05 9.11244e-07 -2.50381e-27 -0.57327 3.22423e-05 1.7563e-22 0 0 0)
(-6.14035e-05 8.88641e-07 2.05642e-23 -0.574679 5.93467e-05 -1.75096e-22 0 0 0)
(-8.8989e-05 8.67211e-07 2.51275e-27 -0.576428 8.57667e-05 -1.6103e-22 2.02271e-22 -1.85078e-26 -3.91292e-44)
(-0.000115673 8.28377e-07 -2.05622e-23 -0.578508 0.00011144 5.46906e-22 0 0 0)
(-0.00014077 7.89905e-07 1.90797e-24 -0.5809 0.000135435 3.673e-23 0 0 0)
(-0.000165389 8.01479e-07 -1.90942e-24 -0.58358 0.00015885 -5.76746e-22 1.7495e-23 -1.98882e-27 -3.99507e-49)
(-0.000190422 8.27222e-07 -1.90796e-24 -0.586543 0.000183084 -5.26688e-24 -1.74968e-23 1.98903e-27 3.99548e-49)
(-0.000216397 8.24841e-07 2.78246e-23 -0.589801 0.000207852 1.20361e-22 0 0 0)
(-0.000241818 8.11312e-07 -4.9568e-23 -0.593357 0.000232241 -7.36639e-22 3.93337e-22 -1.06202e-25 1.00784e-43)
(-0.000266781 7.95796e-07 -3.11893e-23 -0.597203 0.000256249 9.26878e-22 -8.02965e-22 2.36825e-25 2.96925e-44)
(-0.00029127 7.87181e-07 9.05159e-23 -0.601333 0.000279685 3.34492e-21 -7.21509e-23 1.50574e-26 6.25701e-44)
(-0.000315414 7.75782e-07 1.00799e-23 -0.605737 0.000302948 -4.55278e-22 8.02909e-22 -2.78493e-25 -1.7962e-43)
(-0.000338812 7.54312e-07 -9.86098e-23 -0.610408 0.00032551 -3.31171e-22 7.27662e-23 -1.64285e-26 -8.03966e-44)
(-0.000362038 7.23071e-07 -1.24389e-23 -0.615337 0.000347568 1.28856e-21 -1.48574e-21 6.06846e-25 6.10658e-43)
(-0.000383548 7.06964e-07 6.66682e-23 -0.620515 0.000368702 -5.47913e-23 -1.48129e-22 3.80551e-26 -2.3052e-43)
(-0.000405741 6.80485e-07 7.36995e-24 -0.625937 0.000389746 3.62559e-21 1.98006e-22 -5.2764e-26 -4.05459e-44)
(-0.000425878 6.72063e-07 -9.07191e-24 -0.631586 0.000409382 -3.01718e-21 -5.59576e-23 2.2195e-26 4.43881e-44)
(-0.000446124 6.84911e-07 6.52054e-24 -0.637458 0.000429055 -4.56618e-22 0 0 0)
(-0.000465767 6.36353e-07 -6.16804e-24 -0.643541 0.000447709 -1.70134e-21 3.11953e-22 -9.98777e-26 -6.10916e-47)
(-0.000483233 5.96032e-07 -6.60426e-24 -0.649816 0.000464916 -1.50421e-21 -3.12336e-22 1.00001e-25 6.11668e-47)
(-0.000500641 5.79031e-07 6.21097e-24 -0.656282 0.000481606 -1.08821e-21 -2.49533e-23 6.28096e-27 -6.86294e-47)
(-0.000516513 5.562e-07 4.39053e-25 -0.662922 0.000497322 1.29646e-22 2.52811e-23 -6.52308e-27 -3.58501e-47)
(-0.000531915 5.20897e-07 -2.20075e-25 -0.669726 0.000512058 -3.29946e-23 0 0 0)
(-0.00054538 4.89235e-07 -2.40898e-23 -0.676676 0.000525382 -8.5597e-22 0 0 0)
(-0.000558192 4.62027e-07 2.96023e-26 -0.683763 0.000537942 1.0288e-22 3.67693e-21 -2.0261e-24 9.72214e-43)
(-0.000569675 4.3759e-07 3.70701e-23 -0.690973 0.000549158 6.42173e-22 0 0 0)
(-0.000580088 4.12877e-07 -1.29741e-23 -0.698291 0.000559545 -3.40029e-22 -6.90406e-22 2.57011e-25 3.65553e-46)
(-0.000589252 3.85105e-07 -1.29006e-23 -0.705706 0.000568553 5.30853e-22 6.92035e-22 -2.57617e-25 -3.66416e-46)
(-0.000597373 3.76074e-07 1.29323e-23 -0.713202 0.000576652 -1.21214e-21 0 0 0)
(-0.000604788 3.71709e-07 9.04403e-26 -0.72077 0.000584022 6.51921e-22 -3.54605e-24 1.01533e-27 3.92164e-48)
(-0.000611278 3.55554e-07 -3.2672e-25 -0.7284 0.000590623 -1.19794e-24 0 0 0)
(-0.000617081 3.6341e-07 -1.04861e-24 -0.736081 0.000596155 -6.7365e-21 3.65767e-24 -1.06189e-27 4.21034e-48)
(-0.000621941 3.35735e-07 -2.06112e-22 -0.743802 0.000601639 1.45166e-20 0 0 0)
(-0.000626234 3.69098e-07 -1.78955e-24 -0.751559 0.000604909 -1.20549e-20 8.24611e-21 -4.66046e-24 9.31679e-41)
(-0.000629789 3.41413e-07 2.06449e-22 -0.75933 0.000609779 -1.62851e-20 0 0 0)
(-0.000631968 3.31384e-07 2.34666e-22 -0.767119 0.000610289 2.16745e-21 -3.89819e-24 1.16493e-27 6.12686e-48)
(-0.000633719 3.68721e-07 -2.41065e-22 -0.774883 0.000613065 -6.083e-21 -8.56915e-21 4.80027e-24 -9.18511e-42)
(-0.000634667 3.3014e-07 8.81139e-24 -0.782644 0.000612917 4.0373e-21 8.6808e-21 -4.82909e-24 3.44218e-42)
(-0.00063412 3.30552e-07 2.34877e-22 -0.790355 0.000612493 -2.25011e-20 -8.79326e-21 4.86189e-24 -1.03547e-40)
(-0.00063219 2.95399e-07 -2.47387e-22 -0.798013 0.000610125 -1.97235e-20 0 0 0)
(-0.000627773 2.21635e-07 4.30197e-24 -0.805579 0.000606014 1.9764e-20 0 0 0)
(-0.000620227 1.59821e-07 2.35514e-22 -0.813019 0.000598362 2.02718e-24 0 0 0)
(-0.000610235 6.57196e-08 2.27426e-22 -0.820283 0.000589332 -3.04074e-21 -9.24729e-21 4.84309e-24 9.72124e-42)
(-0.000596199 -1.84196e-08 -2.41257e-22 -0.827333 0.000575361 -5.20994e-21 -9.35922e-21 4.77388e-24 -3.51357e-42)
(-0.00057785 -2.33889e-07 -2.31735e-22 -0.8341 0.000559595 1.65656e-20 7.20634e-23 -2.24911e-26 1.62224e-45)
(-0.000551614 -5.00108e-07 1.355e-23 -0.840514 0.000533705 1.68516e-20 2.24857e-22 -8.00568e-26 6.13362e-47)
(-0.000519606 -5.89797e-07 5.61854e-24 -0.846462 0.000504219 -1.06655e-22 -2.25918e-22 8.04345e-26 -6.16256e-47)
(-0.000481262 -1.08934e-06 -2.45916e-24 -0.851896 0.000471041 1.42563e-20 2.8769e-23 -9.22215e-27 -7.51646e-47)
(-0.00043427 -1.24352e-06 1.43516e-22 -0.856695 0.000421545 2.26184e-24 -3.36589e-23 1.05043e-26 1.635e-46)
(-0.000382302 -1.81337e-06 -5.49769e-24 -0.860741 0.000378833 -2.78546e-21 -1.01775e-20 3.48718e-24 1.78866e-42)
(-0.000308919 -2.90913e-06 -5.25493e-23 -0.863975 0.000302476 1.56097e-22 2.35578e-22 -6.23026e-26 -5.46975e-43)
(-0.000216738 -3.25214e-06 3.69128e-24 -0.865996 0.000223185 -1.70312e-21 -1.00856e-20 2.13545e-24 1.28905e-42)
(-0.000199044 6.71324e-08 -9.10753e-23 -0.867251 0.000160094 -2.41588e-23 0 0 0)
(-0.000133855 -5.52565e-06 7.52927e-28 -0.867868 0.000191633 -1.5514e-23 3.96504e-23 -6.7625e-27 7.12127e-47)
(0.000107046 -1.16641e-05 1.25726e-24 -0.806077 -0.000184753 3.2608e-26 9.62456e-21 1.09184e-24 1.85667e-46)
(0.000264795 -4.38845e-06 3.43187e-23 -0.802253 -0.000195523 7.10449e-25 1.89657e-22 2.01727e-26 -6.63273e-44)
(0.000336661 -1.07915e-05 2.05029e-22 -0.798013 -0.000354185 -4.07371e-21 5.0068e-21 7.9509e-25 -8.37635e-43)
(0.000521631 -8.12325e-06 -1.86494e-22 -0.792381 -0.000474853 -3.57583e-21 2.87156e-20 9.74821e-24 -5.44789e-42)
(0.000633196 -9.76145e-06 -1.93541e-22 -0.78595 -0.00060298 -3.10349e-21 -1.09463e-20 -3.36128e-24 -1.72406e-42)
(0.000787054 -8.80126e-06 1.39223e-22 -0.778659 -0.000749717 2.55002e-20 7.34656e-22 2.95121e-25 1.07099e-42)
(0.000914321 -7.75624e-06 -9.74298e-24 -0.770589 -0.000870543 -3.30855e-23 0 0 0)
(0.00103379 -7.547e-06 -9.25159e-22 -0.761913 -0.000992186 4.60192e-24 0 0 0)
(0.00114719 -6.51007e-06 -2.96634e-24 -0.752676 -0.00110291 6.78123e-20 -4.56828e-20 -4.30641e-23 1.13865e-39)
(0.00124045 -5.44833e-06 2.32412e-21 -0.743 -0.00119732 1.1501e-21 1.38566e-21 1.03625e-24 1.27078e-41)
(0.00132002 -4.43911e-06 1.60179e-21 -0.732991 -0.00127571 2.43916e-20 4.8732e-20 5.23677e-23 -1.09861e-39)
(0.0013808 -3.47958e-06 -1.38498e-21 -0.722786 -0.00133797 -2.61738e-20 5.05284e-20 5.72203e-23 -1.45627e-40)
(0.00142877 -2.47543e-06 4.03199e-22 -0.712478 -0.00138633 6.31614e-20 3.19949e-23 -8.71864e-26 1.20017e-41)
(0.00146127 -1.60152e-06 -2.7444e-21 -0.702161 -0.00141965 -2.99685e-20 5.11811e-20 6.30712e-23 -2.49328e-40)
(0.00147922 -6.60447e-07 -1.96274e-21 -0.691929 -0.00144065 2.16082e-20 -5.80457e-20 -7.08636e-23 -7.63314e-40)
(0.00148551 1.63367e-07 1.32348e-21 -0.681836 -0.00144679 -7.52888e-20 2.46719e-21 2.57763e-24 7.23733e-41)
(0.00147746 9.25647e-07 -4.69965e-22 -0.671965 -0.00144267 4.85455e-20 -3.35223e-20 -4.91022e-23 5.56833e-40)
(0.00145947 1.64212e-06 1.52345e-21 -0.662358 -0.00142493 -8.35769e-20 -4.73475e-21 -5.0926e-24 -9.67981e-41)
(0.00142974 2.16389e-06 -2.2597e-21 -0.653096 -0.00139894 1.93305e-21 0 0 0)
(0.00139406 2.73132e-06 2.63331e-21 -0.6442 -0.00136438 4.47986e-20 -4.10212e-20 -5.5016e-23 2.79286e-42)
(0.0013485 3.14834e-06 2.58449e-21 -0.635714 -0.00132178 -5.34287e-20 4.02427e-20 5.31372e-23 1.30855e-40)
(0.00129865 3.47884e-06 -2.65492e-21 -0.627662 -0.00127363 7.33895e-21 0 0 0)
(0.00124272 3.7547e-06 2.65271e-24 -0.620069 -0.00122045 -5.9056e-21 0 0 0)
(0.00118418 3.99998e-06 1.56969e-21 -0.612945 -0.00116359 5.8744e-21 0 0 0)
(0.00112086 4.21201e-06 9.12752e-24 -0.606304 -0.00110253 -1.53839e-20 1.98438e-20 2.30321e-23 -1.30219e-40)
(0.0010551 4.31432e-06 -5.51433e-22 -0.600155 -0.00103863 -5.81822e-21 0 0 0)
(0.000988536 4.39774e-06 -1.01032e-21 -0.594501 -0.000973641 -3.9237e-20 1.50793e-20 1.74962e-23 2.80975e-40)
(0.000919386 4.43992e-06 6.24127e-22 -0.589343 -0.000906361 3.04114e-20 -8.04946e-21 -5.84332e-24 8.2252e-43)
(0.000851015 4.43513e-06 1.44414e-21 -0.584679 -0.000839406 -2.18702e-20 1.87802e-20 1.75539e-23 -6.38967e-41)
(0.000781727 4.44088e-06 -1.11405e-21 -0.580501 -0.000771571 -3.89598e-20 2.95101e-21 1.79421e-24 -2.68449e-43)
(0.000712671 4.40671e-06 -9.47661e-22 -0.576805 -0.000703871 6.21292e-20 3.85408e-21 2.24918e-24 3.81171e-43)
(0.000644073 4.35262e-06 -2.27616e-21 -0.573581 -0.000636431 -1.16832e-20 -3.81668e-21 -2.10179e-24 -2.40987e-42)
(0.000576278 4.2844e-06 7.17291e-22 -0.570821 -0.000569776 2.11991e-20 -1.89595e-20 -1.25642e-23 -1.07143e-40)
(0.000509373 4.20515e-06 1.24505e-21 -0.568515 -0.000503949 1.31176e-21 1.83527e-21 9.30992e-25 2.34126e-41)
(0.000444206 4.10372e-06 -3.10042e-22 -0.566649 -0.000439437 1.35977e-20 -3.70716e-21 -1.52289e-24 -7.16824e-43)
(0.000379952 3.95424e-06 5.60902e-22 -0.565212 -0.000376376 2.77929e-21 -9.02301e-22 -3.37768e-25 -6.18858e-43)
(0.00031915 3.77134e-06 -4.66793e-23 -0.564188 -0.000316078 -5.00325e-22 4.51916e-22 1.91961e-25 1.77606e-44)
(0.000260502 3.5607e-06 -5.36858e-23 -0.563559 -0.000258436 1.59499e-20 -9.20924e-22 -2.10454e-25 2.53389e-42)
(0.00020633 3.33782e-06 5.2184e-22 -0.563301 -0.000204632 2.37027e-20 0 0 0)
(0.000154664 3.12821e-06 4.75284e-23 -0.563389 -0.000154189 -1.56276e-20 4.35351e-21 9.46123e-25 2.78134e-41)
(0.000107233 2.98521e-06 -4.23376e-22 -0.563793 -0.000107386 -1.52677e-22 4.42582e-22 6.36724e-26 3.27984e-47)
(6.10958e-05 3.02302e-06 4.19354e-23 -0.564486 -6.14426e-05 1.52242e-22 -4.42104e-22 -6.36036e-26 -3.27629e-47)
(1.31375e-05 3.06129e-06 4.55825e-23 -0.565451 -1.41376e-05 1.56202e-21 6.73206e-22 5.22457e-26 -4.10645e-45)
(-3.38107e-05 3.05021e-06 -2.51607e-22 -0.566693 3.28672e-05 1.96311e-22 0 0 0)
(-8.18148e-05 3.01481e-06 9.54119e-24 -0.56822 8.03138e-05 2.02298e-21 -2.1724e-21 1.08697e-25 -8.71787e-43)
(-0.000127898 2.92936e-06 1.5434e-22 -0.570025 0.000126164 1.82844e-23 1.10645e-22 -7.53296e-27 -1.06851e-47)
(-0.000173011 2.86333e-06 -2.32856e-23 -0.572099 0.000171003 -4.32837e-21 -1.10598e-22 7.52976e-27 1.06805e-47)
(-0.000216952 2.78646e-06 3.99236e-23 -0.574436 0.000214677 -3.9821e-22 -1.13282e-22 7.89605e-27 1.50277e-44)
(-0.000259138 2.65535e-06 1.57707e-23 -0.577024 0.000256737 -4.32952e-22 4.93177e-22 -1.28192e-25 -5.21397e-45)
(-0.000298636 2.53201e-06 -6.24197e-23 -0.579851 0.000295962 -1.06733e-23 3.12244e-23 -8.06164e-27 5.5891e-45)
(-0.000336631 2.54496e-06 -2.02564e-24 -0.582895 0.000333477 4.51507e-22 -5.67565e-22 1.87207e-25 -1.58085e-44)
(-0.000374671 2.6184e-06 3.88324e-23 -0.586132 0.000371451 -2.7331e-22 0 0 0)
(-0.000414359 2.62744e-06 -4.46624e-23 -0.589565 0.000410754 2.13337e-22 1.13807e-22 -3.63794e-26 5.89133e-44)
(-0.000453387 2.58689e-06 5.32255e-23 -0.593212 0.000449797 -5.54294e-22 -6.8998e-22 2.10867e-25 -1.00658e-43)
(-0.000491396 2.53512e-06 2.30083e-22 -0.597062 0.000487915 1.33434e-21 9.27997e-22 -2.88474e-25 -9.06883e-44)
(-0.000528453 2.49594e-06 -9.14665e-23 -0.601107 0.000524972 -2.63932e-21 4.79838e-21 -2.53455e-24 -1.1489e-42)
(-0.000564554 2.45054e-06 -2.04428e-22 -0.605337 0.000561281 -5.05906e-22 -4.73653e-22 1.35691e-25 9.6539e-43)
(-0.000599476 2.38576e-06 1.11021e-22 -0.609746 0.000596458 -1.22935e-22 -4.68846e-22 2.08047e-25 -3.12872e-43)
(-0.000633763 2.30272e-06 1.74672e-23 -0.614327 0.000630573 4.42232e-21 1.92049e-21 -8.06861e-25 -8.20545e-43)
(-0.000665376 2.24697e-06 1.16153e-22 -0.619068 0.000663028 3.41642e-21 3.86737e-24 -1.36664e-26 -7.22774e-43)
(-0.000697599 2.16733e-06 -1.67884e-22 -0.623965 0.000695057 -2.22168e-21 9.52713e-21 -6.62676e-24 -5.30394e-42)
(-0.000726897 2.09793e-06 -2.20378e-22 -0.629009 0.000724902 1.80205e-21 -9.61026e-21 6.90745e-24 -4.08889e-42)
(-0.000755557 2.06305e-06 7.50087e-23 -0.634189 0.000753935 -3.9387e-21 -1.48308e-21 8.58398e-25 -2.70885e-42)
(-0.000783391 1.93108e-06 -5.58448e-23 -0.639502 0.000781446 1.49911e-21 -8.81607e-21 6.93668e-24 2.0031e-42)
(-0.000807943 1.82001e-06 3.54481e-23 -0.644939 0.000806574 1.12581e-21 -9.91288e-21 7.78486e-24 -1.78175e-42)
(-0.000831952 1.74494e-06 8.83857e-23 -0.650491 0.00083056 5.2827e-22 -1.10454e-20 8.69126e-24 -3.21962e-42)
(-0.000853574 1.64842e-06 5.72381e-23 -0.656147 0.000852713 1.54962e-22 2.06523e-21 -1.32048e-24 5.9385e-43)
(-0.000874298 1.52677e-06 -5.31834e-23 -0.661902 0.000873226 3.55863e-23 -1.04021e-21 6.71572e-25 6.40888e-44)
(-0.000892014 1.4137e-06 1.04718e-23 -0.667744 0.00089129 -9.21498e-22 2.0728e-20 -1.74254e-23 1.96193e-41)
(-0.000908447 1.30859e-06 8.1853e-23 -0.673665 0.000907831 3.32352e-21 -1.12901e-21 3.61928e-25 -1.97623e-42)
(-0.000922811 1.20214e-06 -2.88061e-23 -0.679655 0.000922171 3.55739e-22 -4.33939e-21 2.92763e-24 1.48489e-42)
(-0.000935271 1.09475e-06 -4.64743e-24 -0.685704 0.000934766 -5.71637e-22 2.18778e-21 -1.48196e-24 -3.73821e-43)
(-0.000945823 9.83523e-07 -4.42671e-23 -0.691804 0.000945176 1.18766e-21 -2.23683e-21 1.52913e-24 -8.92626e-43)
(-0.000954607 9.10126e-07 4.03755e-24 -0.697946 0.000953877 -1.0079e-21 4.51285e-21 -3.08796e-24 1.6752e-42)
(-0.000961996 8.46006e-07 6.52318e-23 -0.704119 0.000961043 1.22455e-21 -2.27677e-21 1.55935e-24 -7.82311e-43)
(-0.00096781 7.62346e-07 -3.89765e-22 -0.710316 0.000966685 -1.17661e-21 0 0 0)
(-0.000972412 7.23416e-07 7.69531e-22 -0.71653 0.000970587 1.70646e-20 2.28552e-20 -1.95407e-23 -1.27745e-40)
(-0.000975318 6.18282e-07 -2.61031e-22 -0.722744 0.000973666 -2.20643e-20 -4.62964e-20 3.94052e-23 -2.07806e-40)
(-0.000977455 6.14112e-07 -1.5907e-21 -0.728965 0.000974082 3.89885e-20 3.94156e-20 -3.53735e-23 -6.55429e-40)
(-0.000977218 4.9299e-07 7.27036e-22 -0.735162 0.000974713 1.1895e-20 4.75012e-20 -3.98874e-23 6.8246e-41)
(-0.000975916 4.09009e-07 5.26823e-22 -0.741343 0.000970836 2.78858e-20 -4.98788e-21 3.33847e-24 -1.21715e-41)
(-0.000972215 4.08449e-07 1.34028e-22 -0.74747 0.000967602 2.37127e-20 1.28539e-20 -7.7484e-24 2.06473e-41)
(-0.000967664 2.6239e-07 -8.44914e-22 -0.75354 0.00096093 -2.46454e-20 -7.95724e-21 4.42658e-24 -3.15527e-42)
(-0.000960129 1.7131e-07 -1.21795e-21 -0.759525 0.000952696 8.65281e-21 5.81059e-20 -4.45364e-23 2.73802e-40)
(-0.000949949 -6.01534e-09 2.15761e-21 -0.765408 0.000941028 -1.67498e-20 5.33088e-20 -4.16108e-23 8.14656e-40)
(-0.000935498 -2.70508e-07 9.89731e-22 -0.771152 0.000925607 -1.40677e-20 -5.39812e-20 4.13508e-23 9.75596e-41)
(-0.000916323 -5.1688e-07 -1.14815e-21 -0.776725 0.000904633 3.08514e-20 0 0 0)