/*--------------------------------*- C++ -*----------------------------------*\
  =========                 |
  \\      /  F ield         | OpenFOAM: The Open Source CFD Toolbox
   \\    /   O peration     | Website:  https://openfoam.org
    \\  /    A nd           | Version:  9
     \\/     M anipulation  |
\*---------------------------------------------------------------------------*/
FoamFile
{
    format      ascii;
    class       volVectorField;
    location    "3000";
    object      grad(k);
}
// * * * * * * * * * * * * * * * * * * * * * * * * * * * * * * * * * * * * * //

dimensions      [0 1 -2 0 0 0 0];

internalField   nonuniform List<vector> 
14751
(
(1.44214e-10 -6.4236e-06 0)
(2.37625e-10 -6.3181e-06 0)
(1.88486e-10 -6.25734e-06 -5.40024e-31)
(1.97677e-10 -6.1846e-06 5.40003e-31)
(1.87721e-10 -6.11541e-06 -1.056e-30)
(1.94106e-10 -6.04735e-06 2.7618e-28)
(1.99764e-10 -5.97426e-06 0)
(1.9316e-10 -5.90243e-06 -2.54714e-31)
(1.94406e-10 -5.82978e-06 3.14335e-33)
(1.94403e-10 -5.75692e-06 -2.45289e-31)
(1.90145e-10 -5.68458e-06 6.15078e-33)
(1.67532e-10 -5.61505e-06 5.11403e-28)
(1.60924e-10 -5.54683e-06 0)
(1.57943e-10 -5.48167e-06 -9.46959e-31)
(1.48534e-10 -5.42084e-06 -4.92294e-28)
(1.44231e-10 -5.36298e-06 -2.43988e-28)
(1.33546e-10 -5.31002e-06 9.1807e-31)
(1.21945e-10 -5.26034e-06 -9.18091e-31)
(1.08149e-10 -5.21616e-06 -2.37309e-28)
(1.04345e-10 -5.17678e-06 -2.35517e-28)
(8.85862e-11 -5.14341e-06 0)
(7.37419e-11 -5.11564e-06 -2.33622e-28)
(5.87475e-11 -5.09354e-06 8.86495e-31)
(5.53036e-11 -5.07692e-06 -8.80732e-31)
(4.16833e-11 -5.06642e-06 8.80647e-31)
(1.93456e-11 -5.06147e-06 4.60542e-28)
(4.71478e-12 -5.06187e-06 0)
(-1.98218e-11 -5.06772e-06 1.15278e-28)
(-3.3631e-11 -5.07866e-06 0)
(-4.80896e-11 -5.09494e-06 0)
(-6.2451e-11 -5.11659e-06 0)
(-7.67775e-11 -5.14355e-06 0)
(-9.08071e-11 -5.17579e-06 0)
(-1.0459e-10 -5.21314e-06 4.54245e-31)
(-1.182e-10 -5.25563e-06 -4.54241e-31)
(-1.40231e-10 -5.30324e-06 2.41733e-28)
(-1.52761e-10 -5.35533e-06 -2.44103e-28)
(-1.65351e-10 -5.41233e-06 -2.46234e-28)
(-1.75702e-10 -5.47343e-06 0)
(-1.97509e-10 -5.53813e-06 0)
(-2.0502e-10 -5.60505e-06 1.22306e-31)
(-1.97285e-10 -5.67251e-06 -1.22318e-31)
(-1.9796e-10 -5.73997e-06 -1.25241e-31)
(-1.86344e-10 -5.80799e-06 1.25246e-31)
(-1.89094e-10 -5.87708e-06 6.41187e-32)
(-1.90474e-10 -5.94687e-06 -6.41194e-32)
(-1.90956e-10 -6.01683e-06 -3.28194e-32)
(-1.90013e-10 -6.08667e-06 -1.38424e-28)
(-1.88157e-10 -6.156e-06 0)
(-1.8428e-10 -6.22438e-06 8.48515e-33)
(-1.77495e-10 -6.29078e-06 -8.48524e-33)
(-1.6449e-10 -6.35404e-06 -1.73159e-32)
(-1.58478e-10 -6.41459e-06 1.73157e-32)
(-1.53374e-10 -6.47335e-06 3.52724e-32)
(-1.47718e-10 -6.53009e-06 1.48579e-28)
(-1.41042e-10 -6.5846e-06 -1.42885e-31)
(-1.34173e-10 -6.63658e-06 7.17325e-32)
(-1.26839e-10 -6.68594e-06 0)
(-1.19717e-10 -6.73256e-06 0)
(-9.67813e-11 -6.77647e-06 0)
(-8.95702e-11 -6.81806e-06 -6.20374e-28)
(-7.125e-11 -6.85697e-06 -1.24753e-27)
(-6.73324e-11 -6.89307e-06 -2.98465e-31)
(-7.55293e-11 -6.92605e-06 -3.01356e-31)
(-6.69321e-11 -6.95565e-06 -3.03821e-31)
(-5.9858e-11 -6.98246e-06 3.18879e-28)
(-5.25691e-11 -7.00659e-06 -3.19372e-28)
(-5.50039e-11 -7.02815e-06 0)
(-4.79456e-11 -7.04697e-06 6.12629e-31)
(-4.18305e-11 -7.06346e-06 -6.12631e-31)
(-3.59791e-11 -7.07779e-06 0)
(-3.0426e-11 -7.08997e-06 0)
(-2.49175e-11 -7.10015e-06 0)
(-1.94733e-11 -7.10831e-06 0)
(-1.41305e-11 -7.11446e-06 4.0459e-29)
(-9.0134e-12 -7.1186e-06 -1.23628e-30)
(-3.56048e-12 -7.12079e-06 -4.04952e-29)
(1.02216e-12 -7.12093e-06 2.47278e-30)
(6.70494e-12 -7.1197e-06 -4.04893e-29)
(1.29177e-11 -7.11567e-06 -1.23584e-30)
(2.00952e-11 -7.1097e-06 4.04319e-29)
(2.67504e-11 -7.10047e-06 0)
(3.21121e-11 -7.08945e-06 0)
(3.36613e-11 -7.07632e-06 -1.22715e-30)
(4.07919e-11 -7.06046e-06 1.22717e-30)
(4.73389e-11 -7.04201e-06 0)
(5.52013e-11 -7.0211e-06 0)
(5.60106e-11 -6.99695e-06 0)
(6.45532e-11 -6.96981e-06 0)
(6.46326e-11 -6.93914e-06 -6.31692e-28)
(7.64652e-11 -6.9059e-06 3.00449e-31)
(1.0725e-10 -6.86863e-06 0)
(1.16038e-10 -6.82741e-06 2.95348e-31)
(1.33234e-10 -6.78326e-06 3.76937e-29)
(1.47118e-10 -6.72928e-06 -1.88387e-29)
(1.71274e-10 -6.67425e-06 2.90847e-31)
(2.02822e-10 -6.60487e-06 1.50387e-28)
(2.23547e-10 -6.52575e-06 -1.43008e-31)
(1.44123e-10 -6.44268e-06 -2.93109e-28)
(4.28077e-09 -4.33849e-05 -7.21139e-26)
(9.34491e-09 -4.27103e-05 0)
(9.14774e-09 -4.23437e-05 -1.39626e-25)
(1.13635e-08 -4.19369e-05 -1.0698e-27)
(1.19605e-08 -4.15636e-05 2.73729e-25)
(1.23321e-08 -4.12025e-05 1.30669e-27)
(1.28991e-08 -4.08176e-05 5.13319e-28)
(1.28989e-08 -4.04403e-05 0)
(1.2977e-08 -4.00591e-05 -2.68836e-25)
(1.29445e-08 -3.96765e-05 3.92986e-27)
(1.27643e-08 -3.92968e-05 0)
(1.23161e-08 -3.89345e-05 -4.69214e-28)
(1.20036e-08 -3.85806e-05 0)
(1.15932e-08 -3.8245e-05 0)
(1.10868e-08 -3.79353e-05 2.42696e-25)
(1.06381e-08 -3.76434e-05 7.43745e-27)
(1.0049e-08 -3.73805e-05 -2.45453e-25)
(9.46678e-09 -3.71371e-05 -1.39964e-26)
(8.78257e-09 -3.69277e-05 1.41542e-26)
(8.20268e-09 -3.67483e-05 2.09115e-28)
(7.46175e-09 -3.66062e-05 6.81549e-27)
(6.73834e-09 -3.64995e-05 -6.58721e-27)
(6.00724e-09 -3.64287e-05 0)
(5.38211e-09 -3.63926e-05 0)
(4.64767e-09 -3.6395e-05 0)
(3.87671e-09 -3.6433e-05 -4.01419e-28)
(3.17882e-09 -3.65059e-05 2.3155e-25)
(2.39004e-09 -3.66144e-05 2.45377e-25)
(1.72049e-09 -3.67564e-05 0)
(1.03949e-09 -3.69334e-05 -1.17002e-25)
(3.65149e-10 -3.71459e-05 -1.24347e-25)
(-2.98921e-10 -3.73934e-05 1.21768e-25)
(-9.47919e-10 -3.76759e-05 0)
(-1.58453e-09 -3.79925e-05 -3.42446e-27)
(-2.2124e-09 -3.83435e-05 1.31627e-25)
(-2.90697e-09 -3.87288e-05 -5.39465e-27)
(-3.48424e-09 -3.91445e-05 1.94723e-27)
(-4.04542e-09 -3.95931e-05 6.45793e-26)
(-4.5332e-09 -4.0069e-05 0)
(-5.07406e-09 -4.05684e-05 0)
(-5.35632e-09 -4.10828e-05 -1.83756e-27)
(-5.43542e-09 -4.1599e-05 1.83642e-27)
(-5.59047e-09 -4.21121e-05 -3.32674e-26)
(-5.64062e-09 -4.26271e-05 -9.39754e-28)
(-5.84918e-09 -4.31441e-05 0)
(-6.01059e-09 -4.36598e-05 0)
(-6.13105e-09 -4.41748e-05 0)
(-6.22181e-09 -4.46865e-05 9.18998e-27)
(-6.27472e-09 -4.51921e-05 0)
(-6.26276e-09 -4.56884e-05 0)
(-6.15478e-09 -4.61679e-05 2.57111e-28)
(-5.95259e-09 -4.66216e-05 -2.57138e-28)
(-5.87871e-09 -4.70524e-05 0)
(-5.8401e-09 -4.74673e-05 1.92773e-26)
(-5.78327e-09 -4.78648e-05 -3.90065e-26)
(-5.70992e-09 -4.8243e-05 -1.07586e-27)
(-5.62413e-09 -4.85998e-05 3.94769e-26)
(-5.53658e-09 -4.89344e-05 1.08493e-27)
(-5.45922e-09 -4.92458e-05 -7.78389e-26)
(-5.2336e-09 -4.95337e-05 -2.20178e-27)
(-5.192e-09 -4.98006e-05 2.7579e-27)
(-5.04183e-09 -5.0044e-05 -1.16575e-27)
(-5.00016e-09 -5.02632e-05 0)
(-5.08566e-09 -5.04569e-05 4.53167e-27)
(-5.01943e-09 -5.06229e-05 -4.53725e-27)
(-5.00626e-09 -5.07646e-05 -2.72487e-28)
(-5.00583e-09 -5.08829e-05 2.7384e-28)
(-5.12091e-09 -5.09783e-05 0)
(-5.15063e-09 -5.10498e-05 0)
(-5.21588e-09 -5.10996e-05 1.6655e-25)
(-5.30124e-09 -5.11289e-05 0)
(-5.3964e-09 -5.11377e-05 -9.3227e-27)
(-5.50661e-09 -5.11269e-05 9.34469e-27)
(-5.61714e-09 -5.10962e-05 0)
(-5.72519e-09 -5.10459e-05 -3.53551e-29)
(-5.83696e-09 -5.09759e-05 0)
(-5.95117e-09 -5.08867e-05 3.55948e-29)
(-6.07464e-09 -5.07774e-05 0)
(-6.18027e-09 -5.06533e-05 3.31701e-25)
(-6.20821e-09 -5.05046e-05 0)
(-6.25709e-09 -5.03374e-05 -3.60325e-29)
(-6.24388e-09 -5.01425e-05 -3.28992e-25)
(-6.28277e-09 -4.99307e-05 3.27846e-25)
(-6.28668e-09 -4.9701e-05 -3.26588e-25)
(-6.18894e-09 -4.94493e-05 0)
(-6.07409e-09 -4.91771e-05 0)
(-5.9074e-09 -4.88859e-05 0)
(-5.7243e-09 -4.85713e-05 -3.20244e-25)
(-5.43126e-09 -4.82365e-05 -3.18322e-25)
(-5.14894e-09 -4.78786e-05 5.85129e-28)
(-4.77148e-09 -4.75049e-05 2.34095e-27)
(-4.04648e-09 -4.7106e-05 -2.352e-27)
(-3.40298e-09 -4.66845e-05 2.90504e-28)
(-2.47251e-09 -4.62512e-05 -3.28208e-28)
(-1.22453e-09 -4.57619e-05 -3.05906e-25)
(1.70385e-10 -4.52815e-05 2.30754e-27)
(2.55933e-09 -4.47246e-05 -2.97305e-25)
(4.8143e-09 -4.41304e-05 0)
(4.6581e-09 -4.35405e-05 2.80526e-28)
(2.98555e-08 -0.000138646 6.10813e-25)
(6.33073e-08 -0.000136756 7.58422e-27)
(5.8167e-08 -0.000135763 1.41962e-25)
(7.16034e-08 -0.000134761 2.11584e-24)
(7.50438e-08 -0.00013395 -3.21325e-25)
(7.68824e-08 -0.000133233 2.91757e-26)
(8.09443e-08 -0.000132408 0)
(8.13635e-08 -0.000131599 0)
(8.22448e-08 -0.000130797 -3.84906e-24)
(8.24379e-08 -0.000130003 5.57347e-26)
(8.16407e-08 -0.000129229 3.86855e-24)
(7.9416e-08 -0.000128514 3.94919e-24)
(7.77006e-08 -0.000127835 3.47951e-28)
(7.51376e-08 -0.000127215 4.00068e-24)
(7.20252e-08 -0.000126672 -4.20569e-24)
(6.91889e-08 -0.000126185 1.04447e-25)
(6.54275e-08 -0.00012578 -3.39815e-24)
(6.16924e-08 -0.000125432 -2.05294e-25)
(5.7096e-08 -0.000125181 0)
(5.28796e-08 -0.000125019 -3.68713e-24)
(4.77786e-08 -0.000124962 3.68038e-24)
(4.27042e-08 -0.000125008 0)
(3.75337e-08 -0.000125156 0)
(3.27173e-08 -0.000125405 0)
(2.73467e-08 -0.000125762 1.89261e-24)
(2.19198e-08 -0.000126222 0)
(1.67051e-08 -0.000126783 1.7902e-24)
(1.11298e-08 -0.000127447 -3.13293e-25)
(6.03326e-09 -0.00012821 1.92169e-24)
(8.48406e-10 -0.000129075 1.07415e-25)
(-4.32807e-09 -0.000130042 1.58585e-25)
(-9.45571e-09 -0.000131111 -1.58986e-25)
(-1.45078e-08 -0.000132282 -2.02841e-24)
(-1.94862e-08 -0.000133551 1.03127e-25)
(-2.44329e-08 -0.00013492 -1.62441e-25)
(-2.95828e-08 -0.000136387 -5.28157e-26)
(-3.41842e-08 -0.000137942 2.60283e-26)
(-3.86092e-08 -0.000139594 -3.03541e-26)
(-4.24445e-08 -0.00014132 0)
(-4.62055e-08 -0.000143108 5.33311e-25)
(-4.82357e-08 -0.00014494 2.79749e-26)
(-4.89496e-08 -0.000146764 -2.79447e-26)
(-4.99162e-08 -0.000148547 3.02095e-26)
(-5.04973e-08 -0.000150292 0)
(-5.15344e-08 -0.00015203 -2.83187e-25)
(-5.23998e-08 -0.000153752 7.42014e-27)
(-5.31323e-08 -0.000155458 -7.41698e-27)
(-5.35933e-08 -0.000157137 -4.20754e-27)
(-5.3708e-08 -0.000158781 7.01819e-26)
(-5.32622e-08 -0.00016038 3.30507e-27)
(-5.19402e-08 -0.000161911 -7.64352e-26)
(-5.00309e-08 -0.00016334 0)
(-4.89615e-08 -0.000164675 7.98131e-27)
(-4.82057e-08 -0.000165942 -4.10947e-26)
(-4.72758e-08 -0.000167136 5.04232e-26)
(-4.61957e-08 -0.000168251 6.44652e-25)
(-4.49737e-08 -0.00016928 -1.82842e-26)
(-4.37244e-08 -0.000170222 -3.29872e-26)
(-4.24799e-08 -0.000171072 1.0413e-25)
(-4.0679e-08 -0.000171828 1.55083e-28)
(-3.96637e-08 -0.000172498 1.29123e-24)
(-3.82139e-08 -0.000173075 -1.29598e-24)
(-3.70918e-08 -0.000173558 -1.02169e-25)
(-3.64987e-08 -0.000173947 -1.23582e-24)
(-3.5313e-08 -0.000174235 -1.30708e-24)
(-3.44687e-08 -0.00017443 -1.37828e-24)
(-3.37378e-08 -0.000174536 1.38142e-25)
(-3.35124e-08 -0.000174555 -6.92637e-26)
(-3.29655e-08 -0.000174484 2.62523e-24)
(-3.26591e-08 -0.00017433 -9.71434e-27)
(-3.24901e-08 -0.000174096 -2.78464e-25)
(-3.23728e-08 -0.000173782 1.39586e-25)
(-3.2359e-08 -0.000173392 -1.39247e-25)
(-3.23332e-08 -0.000172926 2.79107e-25)
(-3.22803e-08 -0.000172385 -1.39899e-25)
(-3.2239e-08 -0.000171768 0)
(-3.22279e-08 -0.000171079 2.59385e-24)
(-3.22766e-08 -0.000170313 -5.17064e-24)
(-3.22539e-08 -0.000169491 4.85115e-24)
(-3.15655e-08 -0.000168583 5.13099e-24)
(-3.11335e-08 -0.000167607 -2.76382e-25)
(-3.01892e-08 -0.000166533 5.78931e-25)
(-2.98085e-08 -0.000165398 -3.00519e-25)
(-2.90351e-08 -0.000164204 5.32569e-24)
(-2.77441e-08 -0.000162938 5.13072e-24)
(-2.63828e-08 -0.000161605 -5.09857e-24)
(-2.47873e-08 -0.000160215 0)
(-2.29133e-08 -0.000158754 1.63195e-25)
(-2.0661e-08 -0.000157237 4.32957e-25)
(-1.83044e-08 -0.000155658 -4.74311e-24)
(-1.5769e-08 -0.000154042 -4.83485e-24)
(-1.13984e-08 -0.000152334 1.64563e-26)
(-7.29201e-09 -0.000150572 -4.69249e-24)
(-1.71236e-09 -0.000148795 0)
(5.93121e-09 -0.000146916 3.20893e-25)
(1.34989e-08 -0.000145089 -3.23612e-26)
(2.78999e-08 -0.000143134 2.76042e-25)
(4.01579e-08 -0.000141171 7.90648e-27)
(3.78927e-08 -0.000139261 1.70008e-26)
(9.76728e-08 -0.000250824 -5.18773e-25)
(1.85686e-07 -0.000248152 0)
(1.56625e-07 -0.000246535 -9.79825e-24)
(1.83387e-07 -0.000244991 -2.10557e-24)
(1.8296e-07 -0.000243786 -1.13315e-28)
(1.85874e-07 -0.000242808 1.92834e-23)
(2.00076e-07 -0.000241735 0)
(2.0048e-07 -0.000240733 0)
(2.01625e-07 -0.000239699 2.26253e-23)
(2.01101e-07 -0.000238622 3.76103e-25)
(1.97729e-07 -0.000237613 1.40654e-23)
(1.9078e-07 -0.000236742 -3.70932e-24)
(1.84941e-07 -0.00023597 1.87042e-23)
(1.76665e-07 -0.000235323 -3.6414e-24)
(1.6698e-07 -0.000234823 3.61185e-24)
(1.58254e-07 -0.000234447 -1.80896e-23)
(1.4714e-07 -0.000234209 3.56014e-24)
(1.36027e-07 -0.000234077 -1.86963e-23)
(1.22002e-07 -0.000234108 7.09486e-25)
(1.08724e-07 -0.000234291 4.21403e-24)
(9.32336e-08 -0.000234639 -4.90605e-24)
(7.76787e-08 -0.00023515 7.04733e-25)
(6.18107e-08 -0.000235823 -7.09309e-25)
(4.65246e-08 -0.000236652 7.047e-25)
(2.99923e-08 -0.000237641 -1.02583e-24)
(1.33857e-08 -0.000238785 -7.07225e-25)
(-2.99753e-09 -0.000240083 -2.10123e-24)
(-2.00378e-08 -0.000241532 9.121e-24)
(-3.61969e-08 -0.00024313 -1.75948e-24)
(-5.25452e-08 -0.000244873 -8.87385e-24)
(-6.89158e-08 -0.000246761 9.66439e-24)
(-8.5176e-08 -0.000248791 -3.64774e-25)
(-1.0122e-07 -0.000250961 1.80022e-24)
(-1.17034e-07 -0.000253264 0)
(-1.32755e-07 -0.0002557 4.81006e-24)
(-1.48621e-07 -0.000258266 1.91604e-25)
(-1.63311e-07 -0.000260945 2.59759e-27)
(-1.77155e-07 -0.000263753 4.57282e-24)
(-1.88707e-07 -0.000266649 5.21346e-24)
(-1.99384e-07 -0.000269594 -3.02136e-24)
(-2.04726e-07 -0.000272536 -1.01622e-25)
(-2.04198e-07 -0.000275449 1.01479e-25)
(-2.02113e-07 -0.000278265 0)
(-2.00924e-07 -0.000280992 0)
(-2.02269e-07 -0.000283674 2.56521e-25)
(-2.02886e-07 -0.000286301 0)
(-2.02669e-07 -0.000288868 -1.36568e-24)
(-2.01399e-07 -0.000291363 0)
(-1.98872e-07 -0.000293771 -6.69824e-26)
(-1.9431e-07 -0.000296085 -2.11465e-27)
(-1.86249e-07 -0.000298273 9.66038e-26)
(-1.76029e-07 -0.000300277 -8.53072e-26)
(-1.6849e-07 -0.000302095 5.70486e-26)
(-1.62314e-07 -0.000303781 0)
(-1.55455e-07 -0.000305331 1.16635e-25)
(-1.47974e-07 -0.000306736 -8.03351e-25)
(-1.39893e-07 -0.000307989 1.17514e-25)
(-1.31617e-07 -0.000309086 0)
(-1.23155e-07 -0.000310023 2.72667e-24)
(-1.13779e-07 -0.000310801 2.97525e-24)
(-1.05926e-07 -0.000311429 -9.31409e-25)
(-9.72733e-08 -0.000311903 9.35157e-25)
(-8.92041e-08 -0.000312227 -5.9991e-24)
(-8.21028e-08 -0.000312404 1.42787e-24)
(-7.39826e-08 -0.000312431 1.18853e-24)
(-6.68213e-08 -0.000312319 7.04427e-25)
(-6.0138e-08 -0.000312074 4.88529e-25)
(-5.45343e-08 -0.000311704 -4.8761e-25)
(-4.84754e-08 -0.000311209 1.0621e-23)
(-4.31736e-08 -0.000310596 -1.25173e-23)
(-3.83904e-08 -0.000309874 -4.86992e-25)
(-3.3861e-08 -0.000309046 4.893e-25)
(-2.97762e-08 -0.000308117 -9.71257e-25)
(-2.57941e-08 -0.000307089 9.76531e-25)
(-2.19039e-08 -0.000305965 -9.67084e-25)
(-1.82226e-08 -0.000304746 9.73027e-25)
(-1.47562e-08 -0.000303437 -1.51924e-23)
(-1.18552e-08 -0.000302026 1.6578e-23)
(-9.08348e-09 -0.000300557 -2.73078e-23)
(-4.31268e-09 -0.00029898 -4.74443e-24)
(-5.0599e-10 -0.000297319 -2.33152e-23)
(4.60758e-09 -0.000295519 -2.31994e-23)
(7.03963e-09 -0.000293603 2.30752e-23)
(1.05401e-08 -0.000291552 -4.68041e-24)
(1.51066e-08 -0.000289408 1.81406e-23)
(1.93566e-08 -0.000287178 4.63882e-24)
(2.38029e-08 -0.000284869 -2.24995e-23)
(2.88802e-08 -0.000282471 -2.23382e-23)
(3.41106e-08 -0.00028 -4.49393e-25)
(3.94705e-08 -0.000277451 5.43568e-24)
(4.58625e-08 -0.000274849 4.05575e-24)
(5.65013e-08 -0.00027215 0)
(6.48623e-08 -0.000269381 2.58468e-23)
(7.47143e-08 -0.000266592 -9.36795e-26)
(9.01966e-08 -0.000263701 1.08334e-25)
(1.02689e-07 -0.000260867 1.05156e-25)
(1.32121e-07 -0.000257915 -1.05858e-25)
(1.55662e-07 -0.00025498 1.25436e-29)
(1.40328e-07 -0.000252084 3.31739e-27)
(1.84384e-07 -0.000288945 -1.98134e-28)
(3.15098e-07 -0.000286864 1.00866e-25)
(2.54194e-07 -0.000284992 -6.74054e-24)
(2.79763e-07 -0.000283113 0)
(2.62838e-07 -0.000281403 -3.15424e-23)
(2.54376e-07 -0.0002799 -1.82927e-23)
(2.6873e-07 -0.000278429 0)
(2.67057e-07 -0.000277075 0)
(2.73588e-07 -0.00027577 -1.78495e-23)
(2.73269e-07 -0.000274461 -3.12461e-23)
(2.62269e-07 -0.000273189 -1.68064e-23)
(2.45581e-07 -0.000271991 0)
(2.30983e-07 -0.000270954 -4.72245e-23)
(2.12701e-07 -0.000270095 0)
(1.92257e-07 -0.000269425 -2.96366e-23)
(1.74145e-07 -0.00026894 1.69995e-23)
(1.53303e-07 -0.000268624 2.64906e-23)
(1.32572e-07 -0.000268444 1.97724e-23)
(1.06701e-07 -0.000268445 2.93101e-23)
(8.21068e-08 -0.00026862 0)
(5.47003e-08 -0.000268964 2.9269e-23)
(2.72966e-08 -0.000269476 0)
(-3.09902e-10 -0.00027015 -2.93126e-23)
(-2.70338e-08 -0.00027098 -2.93664e-23)
(-5.51269e-08 -0.000271961 1.47332e-24)
(-8.31156e-08 -0.000273087 1.48536e-26)
(-1.10824e-07 -0.000274356 -1.4692e-24)
(-1.39e-07 -0.000275759 2.1319e-23)
(-1.65949e-07 -0.000277294 1.50007e-24)
(-1.92744e-07 -0.000278951 7.06692e-24)
(-2.19343e-07 -0.000280725 -9.37379e-24)
(-2.456e-07 -0.000282609 7.56528e-25)
(-2.71217e-07 -0.000284602 7.71634e-25)
(-2.96198e-07 -0.00028669 -7.68779e-25)
(-3.2088e-07 -0.000288872 -4.44715e-24)
(-3.45e-07 -0.000291144 -1.57619e-23)
(-3.67783e-07 -0.000293475 0)
(-3.88787e-07 -0.000295828 -4.98723e-24)
(-4.03922e-07 -0.000298226 -4.2292e-24)
(-4.13416e-07 -0.000300655 1.92904e-24)
(-4.15332e-07 -0.000303077 4.12434e-25)
(-4.09808e-07 -0.000305476 -4.21829e-25)
(-4.00575e-07 -0.000307778 4.21239e-25)
(-3.93379e-07 -0.000309981 0)
(-3.89383e-07 -0.000312105 0)
(-3.84284e-07 -0.000314142 0)
(-3.77604e-07 -0.000316097 1.25918e-24)
(-3.68921e-07 -0.000317954 0)
(-3.58289e-07 -0.000319701 -1.13487e-24)
(-3.44575e-07 -0.00032134 2.80887e-26)
(-3.24125e-07 -0.000322862 -5.70358e-26)
(-2.98622e-07 -0.000324213 -5.77806e-26)
(-2.77731e-07 -0.000325367 -1.16188e-25)
(-2.60346e-07 -0.000326385 2.3121e-25)
(-2.41839e-07 -0.000327265 4.58797e-24)
(-2.22264e-07 -0.000328002 0)
(-2.01678e-07 -0.000328592 4.71425e-25)
(-1.80794e-07 -0.000329035 1.13125e-27)
(-1.59652e-07 -0.000329332 -3.21032e-24)
(-1.3783e-07 -0.000329488 -2.74679e-24)
(-1.17981e-07 -0.000329511 4.77237e-25)
(-9.76886e-08 -0.000329409 4.77979e-25)
(-7.83299e-08 -0.000329189 4.58318e-24)
(-6.04059e-08 -0.00032886 -9.58725e-25)
(-4.1817e-08 -0.000328432 9.6168e-25)
(-2.47959e-08 -0.000327913 9.59533e-25)
(-8.91269e-09 -0.000327315 -2.06937e-23)
(5.30851e-09 -0.000326648 9.63237e-25)
(1.955e-08 -0.000325922 -1.11516e-23)
(3.24204e-08 -0.000325146 9.2347e-24)
(4.41467e-08 -0.00032433 1.24695e-26)
(5.51622e-08 -0.000323483 1.92163e-24)
(6.51524e-08 -0.000322612 0)
(7.46537e-08 -0.000321725 3.91006e-23)
(8.36989e-08 -0.000320827 -1.91242e-24)
(9.20856e-08 -0.000319921 0)
(1.00307e-07 -0.000319022 1.10403e-23)
(1.06721e-07 -0.000318081 -1.10128e-23)
(1.1226e-07 -0.000317074 2.19673e-23)
(1.21429e-07 -0.000316035 0)
(1.29646e-07 -0.000314991 2.55408e-23)
(1.41815e-07 -0.000313926 2.1693e-23)
(1.51784e-07 -0.000312831 -2.53876e-23)
(1.6076e-07 -0.000311696 0)
(1.67061e-07 -0.000310549 -2.32719e-23)
(1.72621e-07 -0.000309388 -3.39135e-23)
(1.77742e-07 -0.000308211 2.30258e-23)
(1.83439e-07 -0.000307014 5.4695e-23)
(1.88421e-07 -0.000305795 -3.43335e-23)
(1.93577e-07 -0.000304548 -8.97072e-25)
(1.98136e-07 -0.000303274 3.48246e-23)
(2.07688e-07 -0.000301977 -3.48281e-23)
(2.15142e-07 -0.000300622 -2.01729e-23)
(2.22392e-07 -0.000299215 0)
(2.3852e-07 -0.000297708 -3.34993e-23)
(2.46768e-07 -0.000296126 -2.17408e-25)
(2.79518e-07 -0.000294385 -2.11424e-25)
(3.02087e-07 -0.000292504 -2.51383e-29)
(2.7573e-07 -0.000290468 -1.87514e-26)
(2.50726e-07 -0.000242616 2.86606e-28)
(3.84208e-07 -0.000241484 -2.86314e-28)
(3.07965e-07 -0.000239674 1.56227e-23)
(3.19349e-07 -0.000237689 4.11889e-23)
(2.8547e-07 -0.000235577 -5.20927e-23)
(2.62592e-07 -0.000233543 8.15708e-23)
(2.67785e-07 -0.000231583 0)
(2.54088e-07 -0.000229712 -8.02655e-23)
(2.5118e-07 -0.000228037 -8.07701e-23)
(2.48521e-07 -0.000226553 3.00841e-23)
(2.40065e-07 -0.000225181 7.85065e-23)
(2.20649e-07 -0.000223881 8.01412e-23)
(1.96604e-07 -0.000222691 1.037e-22)
(1.68383e-07 -0.000221576 0)
(1.37618e-07 -0.000220632 -4.85939e-23)
(1.10217e-07 -0.000219884 -4.25099e-24)
(8.18946e-08 -0.000219293 -2.36046e-23)
(5.40556e-08 -0.000218834 4.22452e-24)
(1.99449e-08 -0.000218529 -3.60437e-23)
(-1.24282e-08 -0.000218374 7.97204e-23)
(-4.69797e-08 -0.000218353 -2.75662e-23)
(-8.12187e-08 -0.000218463 4.20755e-24)
(-1.15228e-07 -0.000218698 2.33967e-23)
(-1.48057e-07 -0.000219054 6.11935e-23)
(-1.81633e-07 -0.00021952 4.1846e-24)
(-2.14665e-07 -0.00022009 -3.79849e-23)
(-2.47163e-07 -0.000220758 2.12648e-24)
(-2.79536e-07 -0.000221515 -3.00473e-23)
(-3.10506e-07 -0.000222359 3.8428e-23)
(-3.40673e-07 -0.00022328 2.15676e-24)
(-3.7018e-07 -0.000224266 3.66882e-23)
(-3.9914e-07 -0.000225311 0)
(-4.26872e-07 -0.000226417 0)
(-4.53447e-07 -0.000227561 -1.10715e-24)
(-4.79725e-07 -0.000228721 -1.26751e-26)
(-5.03668e-07 -0.000229882 3.48159e-23)
(-5.21577e-07 -0.000231058 1.12135e-24)
(-5.3775e-07 -0.000232214 -2.04151e-23)
(-5.52585e-07 -0.000233383 2.05849e-23)
(-5.62805e-07 -0.000234577 0)
(-5.63955e-07 -0.000235804 -9.88046e-24)
(-5.53011e-07 -0.000237038 -5.86344e-25)
(-5.34689e-07 -0.000238216 -5.97388e-25)
(-5.18758e-07 -0.000239315 5.96608e-25)
(-5.05871e-07 -0.000240342 3.03445e-25)
(-4.91888e-07 -0.000241278 -6.08913e-25)
(-4.76163e-07 -0.000242139 -5.17356e-24)
(-4.5746e-07 -0.000242909 -1.55057e-25)
(-4.36639e-07 -0.000243575 -1.99628e-25)
(-4.13238e-07 -0.000244142 3.92674e-26)
(-3.81747e-07 -0.000244631 -3.92708e-26)
(-3.4243e-07 -0.000245068 0)
(-3.0812e-07 -0.000245448 -5.66965e-24)
(-2.7904e-07 -0.000245731 0)
(-2.48617e-07 -0.000245914 -4.28291e-24)
(-2.1695e-07 -0.000245996 1.14687e-23)
(-1.84147e-07 -0.000245977 0)
(-1.51117e-07 -0.000245857 1.15311e-23)
(-1.18144e-07 -0.000245642 -6.5073e-25)
(-8.52811e-08 -0.00024534 6.52017e-25)
(-5.45049e-08 -0.000244957 2.31779e-23)
(-2.41508e-08 -0.000244506 2.3199e-23)
(4.86009e-09 -0.000243996 0)
(3.19928e-08 -0.000243438 -1.30783e-24)
(5.86717e-08 -0.000242845 2.58358e-23)
(8.31979e-08 -0.000242228 -1.31255e-24)
(1.05851e-07 -0.000241598 6.65672e-23)
(1.26279e-07 -0.000240966 -5.23498e-24)
(1.45717e-07 -0.000240348 -4.3684e-23)
(1.63133e-07 -0.000239753 -2.6046e-24)
(1.78675e-07 -0.000239193 2.61896e-24)
(1.92827e-07 -0.000238678 0)
(2.05285e-07 -0.000238218 -4.34786e-23)
(2.16579e-07 -0.000237823 -4.01193e-23)
(2.26894e-07 -0.000237503 2.60682e-24)
(2.35657e-07 -0.000237217 0)
(2.45939e-07 -0.000236955 9.67281e-23)
(2.60302e-07 -0.000236754 -1.0326e-23)
(2.72664e-07 -0.000236577 -8.09577e-23)
(2.8315e-07 -0.000236484 -1.02816e-23)
(2.8991e-07 -0.000236477 5.16046e-24)
(2.99269e-07 -0.00023659 5.08151e-24)
(3.05338e-07 -0.000236809 -9.5652e-23)
(3.10591e-07 -0.000237147 0)
(3.1402e-07 -0.000237571 8.50715e-23)
(3.16493e-07 -0.000238074 4.14653e-23)
(3.18031e-07 -0.000238647 -5.03881e-24)
(3.19993e-07 -0.000239287 -3.107e-23)
(3.20677e-07 -0.000239978 3.09773e-23)
(3.21663e-07 -0.000240711 2.51367e-24)
(3.21105e-07 -0.000241467 -3.31502e-23)
(3.25193e-07 -0.000242248 1.21492e-22)
(3.28442e-07 -0.000242997 0)
(3.30104e-07 -0.000243674 0)
(3.42323e-07 -0.000244242 3.24219e-23)
(3.44112e-07 -0.000244608 -4.33161e-23)
(3.70057e-07 -0.000244744 -3.03438e-25)
(3.80741e-07 -0.000244526 3.62816e-29)
(3.63803e-07 -0.000243848 -4.17728e-26)
(3.00067e-07 -0.000174375 0)
(4.14774e-07 -0.000173882 4.8672e-23)
(3.29968e-07 -0.000172431 -1.75301e-25)
(3.19247e-07 -0.000170739 5.56134e-23)
(2.70268e-07 -0.000168782 1.72364e-22)
(2.34749e-07 -0.000166833 -7.72893e-23)
(2.28566e-07 -0.000164967 -9.29655e-23)
(2.03339e-07 -0.000163144 7.69475e-23)
(1.84279e-07 -0.0001615 7.5988e-23)
(1.65034e-07 -0.000160083 2.63918e-24)
(1.43879e-07 -0.000158871 -7.73902e-23)
(1.19911e-07 -0.000157821 -7.4225e-23)
(9.85399e-08 -0.000156854 -7.8867e-23)
(7.02256e-08 -0.000155917 5.09978e-24)
(3.2687e-08 -0.000155092 7.28161e-23)
(-1.56617e-09 -0.000154368 8.68437e-23)
(-3.38143e-08 -0.000153777 8.65007e-23)
(-6.53241e-08 -0.000153354 -5.047e-24)
(-1.0329e-07 -0.000153045 4.99332e-24)
(-1.39113e-07 -0.000152841 -7.66136e-23)
(-1.76088e-07 -0.000152726 -8.0759e-23)
(-2.12363e-07 -0.000152697 0)
(-2.47953e-07 -0.000152751 0)
(-2.82135e-07 -0.000152883 -3.57605e-23)
(-3.16293e-07 -0.000153084 5.03237e-24)
(-3.49444e-07 -0.000153349 3.59462e-23)
(-3.81718e-07 -0.000153671 -7.53706e-24)
(-4.13291e-07 -0.000154043 -8.41021e-23)
(-4.43423e-07 -0.000154462 -3.37282e-23)
(-4.72112e-07 -0.000154922 -4.87611e-23)
(-4.99531e-07 -0.000155409 -7.53996e-23)
(-5.26542e-07 -0.00015591 -4.40875e-23)
(-5.51634e-07 -0.000156404 -4.69433e-23)
(-5.72882e-07 -0.0001569 4.72579e-23)
(-5.91328e-07 -0.000157383 -2.60943e-24)
(-6.08921e-07 -0.000157841 -6.28317e-23)
(-6.24481e-07 -0.0001583 -1.3235e-24)
(-6.38249e-07 -0.000158772 1.92326e-23)
(-6.49511e-07 -0.000159235 -4.1132e-23)
(-6.56202e-07 -0.000159684 2.19174e-23)
(-6.54645e-07 -0.000160128 9.8578e-24)
(-6.3933e-07 -0.000160579 -2.29259e-23)
(-6.13617e-07 -0.000161057 -1.39329e-24)
(-5.89592e-07 -0.000161512 6.98768e-25)
(-5.67087e-07 -0.000161922 -1.20573e-23)
(-5.43173e-07 -0.00016225 1.21342e-23)
(-5.1778e-07 -0.000162518 5.15767e-24)
(-4.88134e-07 -0.000162713 0)
(-4.55815e-07 -0.000162815 4.43807e-24)
(-4.22321e-07 -0.000162822 -4.54107e-26)
(-3.85632e-07 -0.000162764 -3.11665e-24)
(-3.45933e-07 -0.000162696 0)
(-3.06882e-07 -0.000162631 -9.47185e-25)
(-2.67605e-07 -0.000162497 0)
(-2.26721e-07 -0.00016229 0)
(-1.84476e-07 -0.00016201 -2.34821e-23)
(-1.4101e-07 -0.00016166 -1.27131e-23)
(-9.73474e-08 -0.00016124 -1.0858e-23)
(-5.41332e-08 -0.000160755 -2.55081e-23)
(-1.18542e-08 -0.000160216 -2.40298e-23)
(2.82918e-08 -0.000159629 -4.8891e-23)
(6.72648e-08 -0.000159004 -2.03489e-23)
(1.04488e-07 -0.000158353 -5.11244e-23)
(1.39456e-07 -0.000157683 -5.2618e-23)
(1.72925e-07 -0.000157008 -7.29628e-23)
(2.03758e-07 -0.000156338 -5.10436e-23)
(2.32103e-07 -0.000155684 -4.37425e-23)
(2.57756e-07 -0.000155056 3.00274e-24)
(2.81463e-07 -0.000154467 9.15561e-23)
(3.02582e-07 -0.000153928 5.08247e-23)
(3.2121e-07 -0.000153448 0)
(3.37816e-07 -0.000153037 1.04386e-22)
(3.52216e-07 -0.000152704 1.47756e-22)
(3.64771e-07 -0.000152454 -6.01053e-24)
(3.78957e-07 -0.00015224 -5.95231e-24)
(3.96094e-07 -0.000152088 5.62694e-26)
(4.11007e-07 -0.000152001 -8.06587e-23)
(4.23135e-07 -0.000152042 0)
(4.32129e-07 -0.000152235 8.64359e-23)
(4.39746e-07 -0.00015258 5.91206e-24)
(4.43749e-07 -0.00015306 -6.95612e-26)
(4.49071e-07 -0.000153697 -1.1863e-23)
(4.51023e-07 -0.00015448 9.18641e-23)
(4.52082e-07 -0.000155411 1.0611e-22)
(4.51427e-07 -0.000156474 -1.91735e-22)
(4.49568e-07 -0.000157662 -5.86478e-24)
(4.46454e-07 -0.00015897 1.06065e-22)
(4.43416e-07 -0.000160391 -1.00116e-22)
(4.38829e-07 -0.000161908 0)
(4.34409e-07 -0.000163511 -1.45995e-24)
(4.28236e-07 -0.000165177 2.13706e-26)
(4.25823e-07 -0.0001669 -8.30102e-23)
(4.23215e-07 -0.000168622 0)
(4.1855e-07 -0.000170289 9.99065e-23)
(4.2348e-07 -0.000171858 -7.2449e-25)
(4.17547e-07 -0.000173207 4.24864e-23)
(4.31517e-07 -0.000174315 0)
(4.30093e-07 -0.000174987 0)
(4.15015e-07 -0.000175029 3.99855e-26)
(3.18394e-07 -0.000118948 -1.30926e-23)
(4.08133e-07 -0.000119049 5.54891e-24)
(3.20077e-07 -0.000118238 1.03177e-22)
(2.88633e-07 -0.000117191 -1.93444e-22)
(2.28737e-07 -0.000115852 -9.03338e-23)
(1.8308e-07 -0.000114484 2.00007e-22)
(1.66629e-07 -0.000113196 8.87456e-23)
(1.33851e-07 -0.000111919 -1.96279e-22)
(1.04698e-07 -0.000110766 1.97425e-22)
(7.59509e-08 -0.000109745 -1.95708e-22)
(4.62756e-08 -0.00010885 -2.86779e-24)
(1.6054e-08 -0.000108072 8.52047e-24)
(-9.8749e-09 -0.000107417 -5.61512e-24)
(-4.03573e-08 -0.000106895 0)
(-7.64765e-08 -0.000106434 1.91666e-22)
(-1.11045e-07 -0.000106009 -8.82228e-23)
(-1.49946e-07 -0.000105663 -8.23552e-23)
(-1.87436e-07 -0.000105436 -5.51305e-24)
(-2.26476e-07 -0.000105255 -1.72318e-22)
(-2.62831e-07 -0.000105135 -5.44047e-24)
(-2.99472e-07 -0.000105063 8.15223e-23)
(-3.35091e-07 -0.000105038 -9.12472e-23)
(-3.69679e-07 -0.000105058 0)
(-4.0267e-07 -0.00010512 0)
(-4.34999e-07 -0.000105217 0)
(-4.65918e-07 -0.000105346 0)
(-4.95579e-07 -0.000105499 0)
(-5.24126e-07 -0.000105671 8.77196e-23)
(-5.51323e-07 -0.000105851 -5.49223e-24)
(-5.76492e-07 -0.000106032 4.14194e-23)
(-5.99174e-07 -0.000106213 4.44118e-23)
(-6.18762e-07 -0.000106385 1.32617e-22)
(-6.36529e-07 -0.000106527 4.20607e-23)
(-6.53052e-07 -0.000106658 -8.95923e-23)
(-6.67463e-07 -0.000106781 0)
(-6.80314e-07 -0.000106898 4.28548e-23)
(-6.90714e-07 -0.000106993 -4.8133e-23)
(-6.98852e-07 -0.000107064 -4.84398e-23)
(-7.03835e-07 -0.000107098 2.33497e-23)
(-7.04278e-07 -0.00010709 -2.35071e-23)
(-6.97963e-07 -0.000107043 -1.48769e-24)
(-6.82592e-07 -0.000106973 -1.00756e-24)
(-6.57476e-07 -0.000106951 2.50216e-23)
(-6.29658e-07 -0.00010697 -7.58541e-25)
(-5.99603e-07 -0.000106968 1.29381e-23)
(-5.67162e-07 -0.000106899 -1.22521e-23)
(-5.33876e-07 -0.000106784 0)
(-4.94946e-07 -0.00010662 1.93936e-25)
(-4.52007e-07 -0.000106388 -3.11624e-24)
(-4.08681e-07 -0.000106075 1.01439e-25)
(-3.63911e-07 -0.000105703 -3.07825e-25)
(-3.16865e-07 -0.000105288 3.94429e-25)
(-2.6966e-07 -0.00010483 5.95131e-24)
(-2.21457e-07 -0.000104318 -3.95989e-25)
(-1.71567e-07 -0.000103751 -7.95551e-25)
(-1.20376e-07 -0.000103134 1.28082e-23)
(-6.8012e-08 -0.000102469 1.36361e-23)
(-1.54954e-08 -0.000101758 -1.59944e-24)
(3.60894e-08 -0.000101006 2.57591e-23)
(8.59186e-08 -0.000100224 2.25824e-23)
(1.33373e-07 -9.94159e-05 7.72445e-23)
(1.78964e-07 -9.85932e-05 0)
(2.22285e-07 -9.77645e-05 4.84348e-23)
(2.62874e-07 -9.69378e-05 4.8428e-23)
(3.01059e-07 -9.61252e-05 1.01299e-22)
(3.361e-07 -9.53352e-05 4.83812e-23)
(3.68068e-07 -9.45768e-05 -5.27531e-23)
(3.96858e-07 -9.38592e-05 0)
(4.22906e-07 -9.31935e-05 -4.82565e-23)
(4.45884e-07 -9.25872e-05 5.6839e-23)
(4.65902e-07 -9.20473e-05 9.85621e-23)
(4.83433e-07 -9.15811e-05 -1.94599e-22)
(4.98658e-07 -9.11927e-05 -2.00754e-22)
(5.16137e-07 -9.08517e-05 0)
(5.34082e-07 -9.05743e-05 -1.10708e-22)
(5.47989e-07 -9.04223e-05 6.35704e-24)
(5.58635e-07 -9.04227e-05 0)
(5.66698e-07 -9.05645e-05 1.04188e-22)
(5.71218e-07 -9.08601e-05 6.28317e-24)
(5.7395e-07 -9.13108e-05 -6.78525e-26)
(5.73259e-07 -9.19099e-05 -6.3471e-24)
(5.72768e-07 -9.26739e-05 2.08336e-22)