/*--------------------------------*- C++ -*----------------------------------*\
  =========                 |
  \\      /  F ield         | OpenFOAM: The Open Source CFD Toolbox
   \\    /   O peration     | Website:  https://openfoam.org
    \\  /    A nd           | Version:  9
     \\/     M anipulation  |
\*---------------------------------------------------------------------------*/
FoamFile
{
    format      ascii;
    class       volVectorField;
    location    "3000";
    object      grad(p);
}
// * * * * * * * * * * * * * * * * * * * * * * * * * * * * * * * * * * * * * //

dimensions      [0 1 -2 0 0 0 0];

internalField   nonuniform List<vector> 
14751
(
(-4.31843e-05 3.31022e-08 0)
(-4.43997e-05 3.15205e-08 0)
(-4.74959e-05 5.15996e-08 -3.62969e-27)
(-4.84949e-05 5.98824e-08 3.62955e-27)
(-5.03623e-05 7.54627e-08 -1.3647e-26)
(-5.10246e-05 9.03415e-08 2.5825e-25)
(-5.14575e-05 9.43465e-08 0)
(-5.15013e-05 9.74323e-08 -5.89899e-27)
(-5.10258e-05 1.00975e-07 -8.2427e-28)
(-5.0169e-05 1.05633e-07 -8.34411e-27)
(-4.89519e-05 1.11077e-07 -1.58154e-27)
(-4.73971e-05 1.14263e-07 1.13213e-24)
(-4.55077e-05 1.19032e-07 0)
(-4.33939e-05 1.24395e-07 -4.21129e-26)
(-4.10245e-05 1.30099e-07 -1.34929e-24)
(-3.84919e-05 1.37775e-07 -7.36847e-25)
(-3.58233e-05 1.47463e-07 4.95728e-26)
(-3.30454e-05 1.57891e-07 -4.9574e-26)
(-3.02063e-05 1.68939e-07 -8.43745e-25)
(-2.73116e-05 1.80172e-07 -8.73472e-25)
(-2.44205e-05 1.88667e-07 0)
(-2.15298e-05 1.95068e-07 -9.82325e-25)
(-1.86588e-05 1.98587e-07 5.83938e-26)
(-1.58267e-05 2.00498e-07 -6.06189e-26)
(-1.3058e-05 1.99121e-07 6.06131e-26)
(-1.03439e-05 1.95211e-07 1.97852e-24)
(-7.70488e-06 1.90316e-07 0)
(-5.13963e-06 1.83038e-07 5.02546e-25)
(-2.64895e-06 1.75282e-07 0)
(-2.42814e-07 1.66147e-07 0)
(2.08226e-06 1.56117e-07 0)
(4.32458e-06 1.45326e-07 0)
(6.48531e-06 1.33985e-07 0)
(8.56819e-06 1.22195e-07 3.08701e-26)
(1.05645e-05 1.10228e-07 -3.08697e-26)
(1.24857e-05 9.78888e-08 1.00108e-24)
(1.4336e-05 8.59393e-08 -9.87227e-25)
(1.61144e-05 7.41343e-08 -9.41379e-25)
(1.78201e-05 6.29383e-08 0)
(1.94629e-05 5.21041e-08 0)
(2.10525e-05 4.20137e-08 6.8162e-27)
(2.25646e-05 3.13795e-08 -6.81685e-27)
(2.39986e-05 2.02151e-08 -6.44114e-27)
(2.53457e-05 9.10332e-09 6.44141e-27)
(2.66073e-05 -2.32581e-09 3.01086e-27)
(2.7795e-05 -1.34141e-08 -3.01089e-27)
(2.89029e-05 -2.43715e-08 -1.39093e-27)
(2.99332e-05 -3.52574e-08 -3.47081e-25)
(3.08804e-05 -4.58716e-08 0)
(3.17449e-05 -5.60647e-08 3.01001e-28)
(3.25336e-05 -6.62353e-08 -3.01004e-28)
(3.32242e-05 -7.66637e-08 -5.3559e-28)
(3.38095e-05 -8.7414e-08 5.35585e-28)
(3.43022e-05 -9.81225e-08 9.33571e-28)
(3.46972e-05 -1.08736e-07 2.30861e-25)
(3.49946e-05 -1.19333e-07 -3.31248e-27)
(3.51896e-05 -1.29829e-07 1.58553e-27)
(3.52752e-05 -1.40258e-07 0)
(3.52645e-05 -1.5072e-07 0)
(3.51424e-05 -1.61098e-07 0)
(3.49119e-05 -1.71449e-07 -4.8411e-25)
(3.45843e-05 -1.81623e-07 -8.21354e-25)
(3.41379e-05 -1.90908e-07 -2.94166e-27)
(3.35924e-05 -1.99838e-07 -1.8474e-27)
(3.29497e-05 -2.08527e-07 -7.82878e-28)
(3.22033e-05 -2.17134e-07 7.15445e-26)
(3.13535e-05 -2.25241e-07 -3.60323e-26)
(3.04086e-05 -2.32952e-07 0)
(2.93768e-05 -2.40039e-07 -1.35431e-27)
(2.8249e-05 -2.46665e-07 1.35432e-27)
(2.70368e-05 -2.5265e-07 0)
(2.57395e-05 -2.57904e-07 0)
(2.43599e-05 -2.62347e-07 0)
(2.29054e-05 -2.65965e-07 0)
(2.13742e-05 -2.68657e-07 -2.34244e-26)
(1.97633e-05 -2.70349e-07 1.36549e-26)
(1.80822e-05 -2.71037e-07 2.97002e-26)
(1.63127e-05 -2.70475e-07 -3.07005e-26)
(1.44852e-05 -2.68646e-07 3.1812e-26)
(1.25591e-05 -2.64947e-07 1.68132e-26)
(1.05567e-05 -2.59096e-07 -3.59938e-26)
(8.47884e-06 -2.51402e-07 0)
(6.28621e-06 -2.41294e-07 0)
(4.01429e-06 -2.29905e-07 1.95203e-26)
(1.63292e-06 -2.16928e-07 -1.95207e-26)
(-8.62261e-07 -2.0318e-07 0)
(-3.46478e-06 -1.88872e-07 0)
(-6.18107e-06 -1.74811e-07 0)
(-8.9983e-06 -1.60024e-07 0)
(-1.19628e-05 -1.45455e-07 5.81432e-25)
(-1.50164e-05 -1.30176e-07 -4.3994e-27)
(-1.81033e-05 -1.15056e-07 0)
(-2.13902e-05 -1.01751e-07 -3.51878e-27)
(-2.45626e-05 -8.85262e-08 -1.6894e-26)
(-2.78532e-05 -7.30997e-08 8.07445e-27)
(-3.12405e-05 -4.65826e-08 -2.67183e-27)
(-3.44502e-05 -2.33801e-08 -6.16713e-26)
(-3.6115e-05 -2.07526e-08 8.07211e-28)
(-4.08128e-05 -5.79623e-09 4.70402e-26)
(-4.3181e-05 5.66558e-08 1.14118e-28)
(-4.43961e-05 1.56851e-07 0)
(-4.74906e-05 1.56902e-07 -5.39059e-24)
(-4.8492e-05 1.9837e-07 -2.21204e-25)
(-5.03594e-05 2.37677e-07 2.24953e-23)
(-5.10218e-05 2.80787e-07 3.378e-25)
(-5.14548e-05 3.37828e-07 2.54899e-25)
(-5.14984e-05 3.87953e-07 0)
(-5.1023e-05 4.37292e-07 -5.13846e-23)
(-5.0166e-05 4.79293e-07 3.1912e-24)
(-4.89489e-05 5.15987e-07 0)
(-4.73941e-05 5.42627e-07 -1.02444e-24)
(-4.55046e-05 5.65743e-07 0)
(-4.33909e-05 5.8397e-07 0)
(-4.10216e-05 5.93656e-07 7.15468e-23)
(-3.84892e-05 6.00117e-07 1.10015e-23)
(-3.58206e-05 5.97979e-07 -8.91445e-23)
(-3.30431e-05 5.91872e-07 -2.3685e-23)
(-3.02041e-05 5.80112e-07 2.43461e-23)
(-2.73097e-05 5.6627e-07 7.75551e-25)
(-2.44189e-05 5.47784e-07 1.29115e-23)
(-2.15284e-05 5.27399e-07 -1.20532e-23)
(-1.86577e-05 5.04658e-07 0)
(-1.58259e-05 4.8166e-07 0)
(-1.30574e-05 4.55823e-07 0)
(-1.03434e-05 4.2898e-07 -1.72452e-24)
(-7.7046e-06 4.01865e-07 9.71853e-23)
(-5.13949e-06 3.73265e-07 1.2506e-22)
(-2.64894e-06 3.45246e-07 0)
(-2.42944e-07 3.16645e-07 -4.88819e-23)
(2.08202e-06 2.87915e-07 -6.2667e-23)
(4.32424e-06 2.59261e-07 5.54189e-23)
(6.48489e-06 2.30729e-07 0)
(8.56771e-06 2.02518e-07 -6.7797e-24)
(1.05639e-05 1.74912e-07 6.73567e-23)
(1.24851e-05 1.47458e-07 -1.08174e-23)
(1.43355e-05 1.21504e-07 4.1137e-24)
(1.61139e-05 9.66022e-08 2.65223e-23)
(1.78195e-05 7.34967e-08 0)
(1.94623e-05 5.13877e-08 0)
(2.1052e-05 3.14394e-08 -2.9717e-24)
(2.2564e-05 1.09078e-08 2.96986e-24)
(2.3998e-05 -1.00489e-08 -9.98941e-24)
(2.5345e-05 -3.07234e-08 -1.40158e-24)
(2.66066e-05 -5.1876e-08 0)
(2.77943e-05 -7.22697e-08 0)
(2.89022e-05 -9.21134e-08 0)
(2.99325e-05 -1.11554e-07 2.66253e-24)
(3.08798e-05 -1.30008e-07 0)
(3.17442e-05 -1.47472e-07 0)
(3.25329e-05 -1.64527e-07 2.47356e-25)
(3.32235e-05 -1.8152e-07 -2.47382e-25)
(3.38088e-05 -1.99187e-07 0)
(3.43015e-05 -2.16767e-07 3.36902e-24)
(3.46965e-05 -2.3382e-07 -6.45029e-24)
(3.4994e-05 -2.5063e-07 -6.89976e-25)
(3.51889e-05 -2.66801e-07 5.33738e-24)
(3.52746e-05 -2.82654e-07 6.28758e-25)
(3.5264e-05 -2.98121e-07 -7.56599e-24)
(3.5142e-05 -3.12828e-07 -1.01061e-24)
(3.49115e-05 -3.2738e-07 1.17714e-24)
(3.4584e-05 -3.41367e-07 -6.14096e-26)
(3.41375e-05 -3.53938e-07 0)
(3.35921e-05 -3.66087e-07 8.09313e-25)
(3.29496e-05 -3.77094e-07 -8.10309e-25)
(3.22033e-05 -3.8779e-07 -5.77494e-26)
(3.13535e-05 -3.9746e-07 2.95885e-26)
(3.04087e-05 -4.06595e-07 0)
(2.93771e-05 -4.1445e-07 0)
(2.82494e-05 -4.21523e-07 -3.21681e-24)
(2.70374e-05 -4.27798e-07 0)
(2.57402e-05 -4.32887e-07 1.76333e-24)
(2.43607e-05 -4.37092e-07 -1.76749e-24)
(2.29063e-05 -4.40445e-07 0)
(2.13754e-05 -4.42872e-07 2.04694e-26)
(1.97646e-05 -4.44216e-07 0)
(1.80836e-05 -4.4529e-07 -2.50793e-26)
(1.63143e-05 -4.44447e-07 0)
(1.4487e-05 -4.44564e-07 -2.96952e-23)
(1.25611e-05 -4.40914e-07 0)
(1.05588e-05 -4.39055e-07 3.20772e-26)
(8.48125e-06 -4.34222e-07 3.41038e-23)
(6.28878e-06 -4.29091e-07 -3.51197e-23)
(4.01707e-06 -4.22363e-07 3.58851e-23)
(1.63591e-06 -4.13488e-07 0)
(-8.59031e-07 -4.01403e-07 0)
(-3.46137e-06 -3.87267e-07 0)
(-6.17742e-06 -3.69033e-07 3.60883e-23)
(-8.99446e-06 -3.48177e-07 3.53332e-23)
(-1.19587e-05 -3.20147e-07 -5.34753e-25)
(-1.50121e-05 -2.89219e-07 -9.90709e-25)
(-1.80987e-05 -2.52373e-07 9.95382e-25)
(-2.13853e-05 -2.05706e-07 -1.05807e-25)
(-2.45579e-05 -1.67308e-07 1.31439e-25)
(-2.78476e-05 -1.08168e-07 2.3244e-23)
(-3.1235e-05 -5.43169e-08 -6.50672e-25)
(-3.44454e-05 -6.11727e-09 1.49276e-23)
(-3.61107e-05 -4.82772e-08 0)
(-4.0809e-05 1.25608e-07 -4.50226e-26)
(-4.31797e-05 8.1835e-08 -6.41799e-28)
(-4.43889e-05 3.75287e-07 1.2284e-25)
(-4.74856e-05 3.49389e-07 5.66724e-24)
(-4.84872e-05 4.4618e-07 3.34522e-23)
(-5.03565e-05 5.10835e-07 -2.49685e-23)
(-5.1019e-05 5.32153e-07 1.56485e-24)
(-5.14519e-05 5.98395e-07 0)
(-5.14959e-05 6.38928e-07 0)
(-5.10205e-05 6.76742e-07 -1.41831e-22)
(-5.01635e-05 7.05057e-07 5.97756e-24)
(-4.89465e-05 7.2778e-07 2.09284e-22)
(-4.73915e-05 7.39687e-07 2.42713e-22)
(-4.5502e-05 7.45389e-07 -1.27693e-24)
(-4.33883e-05 7.46768e-07 2.97817e-22)
(-4.10187e-05 7.36859e-07 -3.9103e-22)
(-3.84864e-05 7.29491e-07 1.90058e-23)
(-3.58179e-05 7.09219e-07 -2.03371e-22)
(-3.30404e-05 6.90762e-07 -4.15189e-23)
(-3.02016e-05 6.64996e-07 0)
(-2.73075e-05 6.37926e-07 -3.38253e-22)
(-2.4417e-05 6.08141e-07 3.47243e-22)
(-2.15269e-05 5.76909e-07 0)
(-1.86564e-05 5.44035e-07 0)
(-1.58249e-05 5.10365e-07 0)
(-1.30566e-05 4.74863e-07 1.96708e-22)
(-1.03429e-05 4.40661e-07 0)
(-7.70435e-06 4.04566e-07 1.2461e-22)
(-5.13942e-06 3.69322e-07 -1.24776e-22)
(-2.64904e-06 3.3366e-07 1.9982e-22)
(-2.43207e-07 2.98268e-07 4.9856e-23)
(2.08162e-06 2.62962e-07 6.20396e-23)
(4.32373e-06 2.2823e-07 -6.16919e-23)
(6.48427e-06 1.93713e-07 -2.07892e-22)
(8.56702e-06 1.59975e-07 2.41989e-23)
(1.05631e-05 1.26899e-07 -5.98471e-23)
(1.24843e-05 9.49212e-08 -1.17031e-23)
(1.43347e-05 6.43799e-08 5.93013e-24)
(1.61131e-05 3.55342e-08 -1.70315e-23)
(1.78187e-05 8.2938e-09 0)
(1.94616e-05 -1.70989e-08 4.36329e-23)
(2.10513e-05 -4.08907e-08 5.25327e-24)
(2.25633e-05 -6.60484e-08 -5.24759e-24)
(2.39972e-05 -9.02788e-08 1.00602e-23)
(2.53441e-05 -1.15426e-07 0)
(2.66057e-05 -1.40076e-07 -1.88329e-23)
(2.77934e-05 -1.6423e-07 1.11222e-24)
(2.89013e-05 -1.87527e-07 -1.11175e-24)
(2.99316e-05 -2.10378e-07 -1.57754e-24)
(3.08789e-05 -2.31411e-07 3.47615e-24)
(3.17434e-05 -2.51406e-07 2.33878e-25)
(3.25321e-05 -2.70734e-07 -3.70829e-24)
(3.32227e-05 -2.89271e-07 0)
(3.38079e-05 -3.08431e-07 7.69273e-25)
(3.43007e-05 -3.27768e-07 -5.17511e-24)
(3.46957e-05 -3.45979e-07 6.95383e-24)
(3.49933e-05 -3.63832e-07 2.15835e-23)
(3.51883e-05 -3.80236e-07 -3.65807e-24)
(3.5274e-05 -3.9612e-07 -2.22196e-24)
(3.52635e-05 -4.1064e-07 9.36474e-24)
(3.51415e-05 -4.24728e-07 -2.19031e-25)
(3.49111e-05 -4.36973e-07 2.31634e-23)
(3.45837e-05 -4.49292e-07 -2.01555e-23)
(3.41373e-05 -4.59974e-07 -2.99401e-24)
(3.3592e-05 -4.69173e-07 -1.13013e-23)
(3.29496e-05 -4.77506e-07 -9.83639e-24)
(3.22034e-05 -4.84773e-07 -7.19337e-24)
(3.13537e-05 -4.90758e-07 8.48564e-25)
(3.04091e-05 -4.95438e-07 -2.26848e-25)
(2.93776e-05 -4.99131e-07 -5.57575e-24)
(2.825e-05 -5.01296e-07 1.08301e-24)
(2.70382e-05 -5.02878e-07 4.27927e-24)
(2.57412e-05 -5.02681e-07 -2.49465e-24)
(2.43619e-05 -5.01865e-07 3.79598e-24)
(2.29077e-05 -5.00304e-07 -8.21717e-24)
(2.13769e-05 -4.97814e-07 4.425e-24)
(1.97663e-05 -4.93767e-07 0)
(1.80856e-05 -4.90618e-07 -4.63771e-23)
(1.63165e-05 -4.83166e-07 1.00533e-22)
(1.44894e-05 -4.80897e-07 -8.07304e-23)
(1.25638e-05 -4.69168e-07 -1.14089e-22)
(1.05617e-05 -4.65475e-07 1.52295e-23)
(8.48443e-06 -4.53705e-07 -4.65049e-23)
(6.2921e-06 -4.44176e-07 3.21924e-23)
(4.02059e-06 -4.31391e-07 -1.64922e-22)
(1.6396e-06 -4.17232e-07 -1.42541e-22)
(-8.55239e-07 -3.98092e-07 1.43791e-22)
(-3.4575e-06 -3.79726e-07 0)
(-6.17348e-06 -3.53453e-07 -2.52908e-23)
(-8.9904e-06 -3.2904e-07 -4.13325e-23)
(-1.19545e-05 -2.89629e-07 1.2427e-22)
(-1.50081e-05 -2.53948e-07 1.26887e-22)
(-1.80944e-05 -2.1561e-07 -8.71974e-25)
(-2.13812e-05 -1.52971e-07 1.08736e-22)
(-2.45537e-05 -1.23356e-07 0)
(-2.78427e-05 -3.42618e-08 -2.27309e-23)
(-3.12302e-05 1.82432e-08 1.24063e-24)
(-3.44429e-05 8.61655e-08 -1.40191e-23)
(-3.61022e-05 -4.60509e-08 -1.88583e-25)
(-4.08056e-05 4.54216e-07 -8.62493e-26)
(-4.31824e-05 2.37675e-07 4.37517e-28)
(-4.43789e-05 6.53292e-07 0)
(-4.74816e-05 6.44742e-07 -4.10311e-23)
(-4.84816e-05 7.59908e-07 -3.23561e-23)
(-5.03538e-05 8.65557e-07 -3.58443e-25)
(-5.10169e-05 8.8015e-07 2.14957e-22)
(-5.14493e-05 9.56774e-07 0)
(-5.14941e-05 1.00121e-06 0)
(-5.10189e-05 1.03506e-06 5.13492e-22)
(-5.01618e-05 1.05828e-06 1.26355e-23)
(-4.89447e-05 1.07442e-06 1.84449e-22)
(-4.73897e-05 1.08009e-06 -2.30453e-22)
(-4.54999e-05 1.07491e-06 5.07782e-22)
(-4.3386e-05 1.06654e-06 -2.62653e-22)
(-4.10161e-05 1.04208e-06 2.77632e-22)
(-3.84836e-05 1.0234e-06 -5.82715e-22)
(-3.5815e-05 9.87731e-07 3.03873e-22)
(-3.30376e-05 9.56448e-07 -6.70425e-22)
(-3.0199e-05 9.1643e-07 3.98551e-23)
(-2.73051e-05 8.73703e-07 3.76349e-22)
(-2.44149e-05 8.29826e-07 -4.26922e-22)
(-2.15251e-05 7.83954e-07 4.29494e-23)
(-1.8655e-05 7.36769e-07 -4.4598e-23)
(-1.58239e-05 6.86962e-07 4.43082e-23)
(-1.30559e-05 6.35886e-07 -1.35135e-22)
(-1.03425e-05 5.87354e-07 -4.51538e-23)
(-7.70423e-06 5.34717e-07 -2.05324e-22)
(-5.13951e-06 4.85247e-07 3.65312e-22)
(-2.64939e-06 4.33657e-07 -1.82641e-22)
(-2.43753e-07 3.82813e-07 -3.41331e-22)
(2.0809e-06 3.3199e-07 3.84833e-22)
(4.32285e-06 2.82023e-07 -2.25167e-23)
(6.48327e-06 2.32225e-07 1.78209e-22)
(8.56592e-06 1.83635e-07 0)
(1.0562e-05 1.356e-07 1.73974e-22)
(1.24831e-05 9.02473e-08 1.0636e-23)
(1.43335e-05 4.61226e-08 -1.63053e-25)
(1.61119e-05 4.37194e-09 1.4473e-22)
(1.78175e-05 -3.70836e-08 1.72205e-22)
(1.94604e-05 -7.5379e-08 -1.1874e-22)
(2.105e-05 -1.13454e-07 -4.76357e-24)
(2.25619e-05 -1.54689e-07 4.75686e-24)
(2.39958e-05 -1.93042e-07 0)
(2.53427e-05 -2.34379e-07 0)
(2.66042e-05 -2.73169e-07 1.70595e-23)
(2.77919e-05 -3.11609e-07 0)
(2.88998e-05 -3.48852e-07 -3.15814e-23)
(2.99302e-05 -3.8559e-07 0)
(3.08776e-05 -4.19409e-07 -3.60932e-24)
(3.17421e-05 -4.52031e-07 -1.07291e-25)
(3.25308e-05 -4.84714e-07 4.04342e-24)
(3.32215e-05 -5.17127e-07 -2.27805e-24)
(3.38066e-05 -5.48135e-07 1.4882e-24)
(3.42994e-05 -5.7788e-07 0)
(3.46945e-05 -6.05246e-07 2.40239e-24)
(3.49921e-05 -6.31804e-07 -2.30627e-23)
(3.51872e-05 -6.55644e-07 2.20992e-24)
(3.5273e-05 -6.78267e-07 0)
(3.52627e-05 -6.97697e-07 2.42591e-23)
(3.51408e-05 -7.17749e-07 2.47507e-23)
(3.49105e-05 -7.32405e-07 -1.83654e-23)
(3.45832e-05 -7.48096e-07 1.60333e-23)
(3.41369e-05 -7.6072e-07 -2.96465e-23)
(3.35918e-05 -7.69068e-07 1.36459e-23)
(3.29495e-05 -7.77541e-07 8.94423e-24)
(3.22036e-05 -7.8331e-07 4.84955e-24)
(3.13541e-05 -7.87228e-07 1.13438e-24)
(3.04096e-05 -7.8765e-07 2.8748e-25)
(2.93783e-05 -7.87558e-07 -6.31723e-24)
(2.8251e-05 -7.84356e-07 2.18938e-23)
(2.70394e-05 -7.8025e-07 2.26964e-24)
(2.57426e-05 -7.73169e-07 -2.2804e-24)
(2.43635e-05 -7.65209e-07 6.94878e-24)
(2.29095e-05 -7.56096e-07 -6.98651e-24)
(2.1379e-05 -7.45468e-07 9.14062e-24)
(1.97687e-05 -7.32145e-07 -9.1968e-24)
(1.80883e-05 -7.20568e-07 1.39109e-22)
(1.63194e-05 -7.01031e-07 -1.84505e-22)
(1.44927e-05 -6.9081e-07 2.86031e-22)
(1.25676e-05 -6.6527e-07 1.05494e-22)
(1.05656e-05 -6.53166e-07 2.21821e-22)
(8.48884e-06 -6.28375e-07 2.31353e-22)
(6.29668e-06 -6.06481e-07 -2.3934e-22)
(4.02539e-06 -5.78352e-07 1.22876e-22)
(1.6446e-06 -5.47705e-07 -1.25156e-22)
(-8.50214e-07 -5.08789e-07 -1.26548e-22)
(-3.45244e-06 -4.72282e-07 2.53745e-22)
(-6.16847e-06 -4.22529e-07 2.52213e-22)
(-8.98527e-06 -3.77773e-07 7.6186e-24)
(-1.19493e-05 -3.09183e-07 -1.3595e-22)
(-1.50036e-05 -2.47351e-07 -1.08754e-22)
(-1.80894e-05 -1.88654e-07 0)
(-2.13769e-05 -8.85128e-08 -3.06939e-22)
(-2.45491e-05 -4.55466e-08 1.16887e-24)
(-2.78374e-05 8.94098e-08 -1.37286e-24)
(-3.12257e-05 1.60752e-07 -9.60786e-25)
(-3.44439e-05 2.54572e-07 9.67199e-25)
(-3.60885e-05 1.11351e-08 -5.62222e-29)
(-4.08012e-05 8.61545e-07 4.13062e-26)
(-4.31881e-05 5.99076e-07 -1.38358e-28)
(-4.43658e-05 1.08078e-06 2.24948e-25)
(-4.74768e-05 1.1377e-06 -1.94108e-25)
(-4.84745e-05 1.26778e-06 0)
(-5.03497e-05 1.43148e-06 -1.61454e-22)
(-5.10144e-05 1.4712e-06 -2.03525e-22)
(-5.14462e-05 1.56707e-06 0)
(-5.14922e-05 1.63041e-06 0)
(-5.10175e-05 1.66329e-06 -3.24933e-22)
(-5.01605e-05 1.67959e-06 -3.74786e-22)
(-4.89433e-05 1.68851e-06 -3.87139e-22)
(-4.73883e-05 1.69316e-06 0)
(-4.54982e-05 1.6813e-06 -9.30349e-22)
(-4.33843e-05 1.66379e-06 0)
(-4.1014e-05 1.62352e-06 -5.22471e-22)
(-3.84814e-05 1.58789e-06 5.47597e-22)
(-3.58127e-05 1.52999e-06 4.97449e-22)
(-3.30352e-05 1.47457e-06 6.63015e-22)
(-3.01969e-05 1.41019e-06 6.08867e-22)
(-2.73033e-05 1.33972e-06 0)
(-2.44135e-05 1.26904e-06 6.38203e-22)
(-2.15241e-05 1.1952e-06 0)
(-1.86545e-05 1.12005e-06 -6.58979e-22)
(-1.58239e-05 1.03977e-06 -6.66391e-22)
(-1.30562e-05 9.5881e-07 4.22579e-23)
(-1.03433e-05 8.81198e-07 4.56652e-25)
(-7.70532e-06 7.97415e-07 -4.21701e-23)
(-5.14086e-06 7.19132e-07 3.39179e-22)
(-2.65109e-06 6.37188e-07 4.23685e-23)
(-2.45691e-07 5.56471e-07 2.95329e-22)
(2.07876e-06 4.75993e-07 -3.56512e-22)
(4.32053e-06 3.97042e-07 2.08473e-23)
(6.4808e-06 3.18541e-07 2.05335e-23)
(8.56333e-06 2.41944e-07 -2.04576e-23)
(1.05594e-05 1.66066e-07 -1.60848e-22)
(1.24805e-05 9.43863e-08 -3.16804e-22)
(1.43309e-05 2.27678e-08 0)
(1.61092e-05 -4.51822e-08 -1.62206e-22)
(1.78148e-05 -1.13108e-07 -1.40119e-22)
(1.94578e-05 -1.76665e-07 6.40387e-23)
(2.10472e-05 -2.40897e-07 9.01098e-24)
(2.25589e-05 -3.1006e-07 -8.5429e-24)
(2.39927e-05 -3.73769e-07 8.53095e-24)
(2.53395e-05 -4.4114e-07 0)
(2.66011e-05 -5.02808e-07 0)
(2.77889e-05 -5.636e-07 0)
(2.88968e-05 -6.2292e-07 2.91184e-23)
(2.99272e-05 -6.80946e-07 0)
(3.08748e-05 -7.3458e-07 -1.37175e-23)
(3.17392e-05 -7.87323e-07 4.05807e-25)
(3.25279e-05 -8.46934e-07 -7.28598e-25)
(3.32186e-05 -9.13872e-07 -6.42877e-25)
(3.3804e-05 -9.69856e-07 -1.19734e-24)
(3.4297e-05 -1.0141e-06 2.57116e-24)
(3.46922e-05 -1.05405e-06 3.69012e-23)
(3.499e-05 -1.09187e-06 0)
(3.51852e-05 -1.12507e-06 3.71221e-24)
(3.52713e-05 -1.15558e-06 -3.66828e-25)
(3.5261e-05 -1.1801e-06 -2.87297e-23)
(3.51394e-05 -1.20601e-06 -2.24782e-23)
(3.49093e-05 -1.22222e-06 2.26759e-24)
(3.45821e-05 -1.23954e-06 1.54789e-24)
(3.41363e-05 -1.25224e-06 2.39162e-23)
(3.35914e-05 -1.25716e-06 -2.41388e-24)
(3.29493e-05 -1.26251e-06 2.42132e-24)
(3.22037e-05 -1.2632e-06 1.04765e-24)
(3.13545e-05 -1.26134e-06 -1.28679e-23)
(3.04103e-05 -1.25317e-06 3.856e-25)
(2.93793e-05 -1.24477e-06 9.39723e-24)
(2.82523e-05 -1.23154e-06 -1.63726e-23)
(2.7041e-05 -1.21681e-06 1.17216e-24)
(2.57446e-05 -1.19786e-06 -4.22946e-24)
(2.43658e-05 -1.17749e-06 0)
(2.29121e-05 -1.15536e-06 -1.19656e-22)
(2.1382e-05 -1.13116e-06 7.55155e-24)
(1.9772e-05 -1.1034e-06 0)
(1.80921e-05 -1.07855e-06 -7.95505e-23)
(1.63235e-05 -1.04337e-06 8.64406e-23)
(1.44974e-05 -1.01974e-06 -1.85607e-22)
(1.25726e-05 -9.75598e-07 0)
(1.05709e-05 -9.47611e-07 -2.34074e-22)
(8.49479e-06 -9.04196e-07 -2.1765e-22)
(6.30294e-06 -8.62791e-07 2.52335e-22)
(4.03207e-06 -8.11329e-07 0)
(1.65163e-06 -7.54712e-07 2.50274e-22)
(-8.43123e-07 -6.86163e-07 2.23521e-22)
(-3.44524e-06 -6.19814e-07 -2.54259e-22)
(-6.16128e-06 -5.34658e-07 -4.61606e-22)
(-8.97786e-06 -4.55307e-07 2.27711e-22)
(-1.19416e-05 -3.44677e-07 7.29313e-24)
(-1.49969e-05 -2.39073e-07 -2.2057e-22)
(-1.80822e-05 -1.42649e-07 2.10812e-22)
(-2.13706e-05 9.62092e-09 1.93321e-22)
(-2.45425e-05 8.98542e-08 0)
(-2.783e-05 2.79401e-07 1.54243e-22)
(-3.12197e-05 3.92715e-07 1.34612e-24)
(-3.44474e-05 5.34839e-07 9.25531e-25)
(-3.60687e-05 2.08319e-07 5.38554e-29)
(-4.07928e-05 1.35707e-06 3.95236e-26)
(-4.31949e-05 1.18465e-06 1.32142e-28)
(-4.43491e-05 1.6956e-06 -1.32007e-28)
(-4.74702e-05 1.83828e-06 3.83024e-23)
(-4.8466e-05 1.96699e-06 1.13195e-22)
(-5.03434e-05 2.17839e-06 -1.54082e-22)
(-5.10108e-05 2.25451e-06 3.88282e-22)
(-5.14425e-05 2.36307e-06 0)
(-5.14905e-05 2.44158e-06 -5.43831e-22)
(-5.10173e-05 2.46557e-06 -6.28643e-22)
(-5.01606e-05 2.46511e-06 3.55195e-22)
(-4.89429e-05 2.45197e-06 7.57876e-22)
(-4.73875e-05 2.43993e-06 8.48831e-22)
(-4.54974e-05 2.40413e-06 1.29654e-21)
(-4.33836e-05 2.35858e-06 0)
(-4.10131e-05 2.28748e-06 -4.94351e-22)
(-3.84805e-05 2.2156e-06 -6.6404e-23)
(-3.58119e-05 2.11018e-06 -4.73177e-22)
(-3.30343e-05 2.00686e-06 7.11117e-23)
(-3.01965e-05 1.90508e-06 -7.17742e-22)
(-2.73033e-05 1.79371e-06 1.24972e-21)
(-2.44138e-05 1.6834e-06 -6.01075e-22)
(-2.1525e-05 1.5694e-06 7.72772e-23)
(-1.8656e-05 1.45489e-06 5.43148e-22)
(-1.58261e-05 1.33387e-06 1.17371e-21)
(-1.30587e-05 1.21324e-06 7.82899e-23)
(-1.03462e-05 1.09712e-06 -6.34319e-22)
(-7.70868e-06 9.74162e-07 3.98803e-23)
(-5.1445e-06 8.59456e-07 -6.75785e-22)
(-2.65515e-06 7.40692e-07 6.34879e-22)
(-2.49999e-07 6.2415e-07 3.95013e-23)
(2.07425e-06 5.08778e-07 5.89174e-22)
(4.31585e-06 3.96522e-07 0)
(6.47598e-06 2.85243e-07 0)
(8.5584e-06 1.75891e-07 -1.89674e-23)
(1.05544e-05 6.72481e-08 2.08655e-25)
(1.24755e-05 -3.47474e-08 5.92635e-22)
(1.43258e-05 -1.37471e-07 1.83235e-23)
(1.61042e-05 -2.34233e-07 -2.85486e-22)
(1.78099e-05 -3.2898e-07 2.79463e-22)
(1.94529e-05 -4.17304e-07 0)
(2.10419e-05 -5.08614e-07 -1.24872e-22)
(2.25536e-05 -6.15856e-07 -8.19692e-24)
(2.39875e-05 -7.19422e-07 -7.73305e-24)
(2.53343e-05 -8.1627e-07 7.72295e-24)
(2.65962e-05 -8.96062e-07 3.60606e-24)
(2.77839e-05 -9.73373e-07 -7.07145e-24)
(2.88919e-05 -1.04969e-06 -5.09009e-23)
(2.99225e-05 -1.12248e-06 -1.59029e-24)
(3.08702e-05 -1.18819e-06 1.58811e-24)
(3.17342e-05 -1.25361e-06 3.5965e-25)
(3.25219e-05 -1.33227e-06 -3.59681e-25)
(3.32127e-05 -1.42495e-06 0)
(3.37994e-05 -1.49758e-06 -3.9704e-23)
(3.42934e-05 -1.54786e-06 0)
(3.46889e-05 -1.59164e-06 -3.44476e-23)
(3.4987e-05 -1.63136e-06 6.35873e-23)
(3.51826e-05 -1.66438e-06 0)
(3.5269e-05 -1.69276e-06 5.2832e-23)
(3.5259e-05 -1.71205e-06 -2.79228e-24)
(3.51378e-05 -1.73373e-06 2.7978e-24)
(3.49082e-05 -1.74174e-06 7.32951e-23)
(3.45812e-05 -1.75046e-06 6.25809e-23)
(3.4136e-05 -1.75346e-06 0)
(3.35915e-05 -1.74504e-06 -2.25932e-24)
(3.29497e-05 -1.73722e-06 3.49165e-23)
(3.22044e-05 -1.72324e-06 -1.62154e-24)
(3.13558e-05 -1.70652e-06 3.29143e-23)
(3.0412e-05 -1.68083e-06 -2.37542e-25)
(2.93814e-05 -1.65539e-06 1.69418e-23)
(2.82548e-05 -1.62402e-06 2.8232e-24)
(2.7044e-05 -1.59079e-06 -2.83876e-24)
(2.5748e-05 -1.55269e-06 0)
(2.43695e-05 -1.51284e-06 8.2862e-23)
(2.29162e-05 -1.47122e-06 1.18405e-22)
(2.13866e-05 -1.4285e-06 -7.08778e-24)
(1.97769e-05 -1.38259e-06 0)
(1.80976e-05 -1.33976e-06 -3.18375e-22)
(1.63293e-05 -1.28608e-06 4.05733e-23)
(1.45039e-05 -1.24317e-06 3.05726e-22)
(1.25798e-05 -1.17624e-06 4.63691e-23)
(1.05784e-05 -1.12408e-06 -2.39661e-23)
(8.5031e-06 -1.05527e-06 -2.59067e-23)
(6.31176e-06 -9.86433e-07 4.50365e-22)
(4.04151e-06 -9.05009e-07 0)
(1.6616e-06 -8.16424e-07 -4.17773e-22)
(-8.32994e-07 -7.13326e-07 -2.6809e-22)
(-3.43488e-06 -6.10817e-07 2.83067e-23)
(-6.15085e-06 -4.85693e-07 2.11912e-22)
(-8.96709e-06 -3.65517e-07 -2.0948e-22)
(-1.19305e-05 -2.10758e-07 -1.38703e-23)
(-1.49869e-05 -5.61203e-08 2.09965e-22)
(-1.80715e-05 8.40002e-08 -5.98153e-22)
(-2.1361e-05 2.86303e-07 0)
(-2.45327e-05 4.13511e-07 0)
(-2.78196e-05 6.47367e-07 -1.49564e-22)
(-3.12106e-05 8.10005e-07 1.25392e-22)
(-3.44513e-05 1.01227e-06 8.86237e-25)
(-3.60434e-05 6.46655e-07 -5.1624e-29)
(-4.07797e-05 1.96965e-06 3.81094e-26)
(-4.3201e-05 1.95744e-06 0)
(-4.43295e-05 2.44944e-06 3.32567e-23)
(-4.7462e-05 2.68243e-06 -2.04498e-25)
(-4.84572e-05 2.78832e-06 1.08765e-22)
(-5.03355e-05 3.02014e-06 5.8705e-22)
(-5.10065e-05 3.12114e-06 -3.68552e-22)
(-5.14388e-05 3.21425e-06 -4.47459e-22)
(-5.14894e-05 3.28326e-06 5.20962e-22)
(-5.10186e-05 3.28735e-06 5.89836e-22)
(-5.01626e-05 3.26443e-06 2.17025e-23)
(-4.89447e-05 3.21163e-06 -7.43374e-22)
(-4.73892e-05 3.15016e-06 -7.8254e-22)
(-4.54992e-05 3.04384e-06 -8.93438e-22)
(-4.33855e-05 2.93204e-06 5.37322e-23)
(-4.10148e-05 2.80923e-06 9.3945e-22)
(-3.84829e-05 2.68033e-06 9.83072e-22)
(-3.58149e-05 2.51451e-06 1.02263e-21)
(-3.30365e-05 2.35315e-06 -6.7448e-23)
(-3.01985e-05 2.20449e-06 6.67307e-23)
(-2.73057e-05 2.04401e-06 -1.1865e-21)
(-2.44167e-05 1.88719e-06 -1.06834e-21)
(-2.15283e-05 1.72773e-06 0)
(-1.86601e-05 1.57005e-06 0)
(-1.58308e-05 1.40628e-06 -5.92336e-22)
(-1.30637e-05 1.24532e-06 7.50404e-23)
(-1.03517e-05 1.09083e-06 6.00254e-22)
(-7.71453e-06 9.30637e-07 -1.12414e-22)
(-5.15057e-06 7.82067e-07 -1.16393e-21)
(-2.66168e-06 6.30521e-07 -5.61851e-22)
(-2.56736e-07 4.82706e-07 -6.71246e-22)
(2.06738e-06 3.37159e-07 -1.11178e-21)
(4.30885e-06 1.95886e-07 -5.88181e-22)
(6.46879e-06 5.69096e-08 -6.18535e-22)
(8.551e-06 -7.91786e-08 6.1084e-22)
(1.05471e-05 -2.14294e-07 -3.56238e-23)
(1.24683e-05 -3.38805e-07 -8.20078e-22)
(1.43186e-05 -4.62008e-07 -1.7265e-23)
(1.60972e-05 -5.77152e-07 2.6895e-22)
(1.78032e-05 -6.89122e-07 -5.10211e-22)
(1.94461e-05 -7.92445e-07 2.40912e-22)
(2.10338e-05 -9.01229e-07 1.25328e-22)
(2.25444e-05 -1.04183e-06 -2.36314e-22)
(2.39787e-05 -1.19657e-06 -1.47823e-23)
(2.53272e-05 -1.33052e-06 7.27164e-24)
(2.65901e-05 -1.42512e-06 -1.10638e-22)
(2.77779e-05 -1.51307e-06 1.06575e-22)
(2.88859e-05 -1.59696e-06 5.11779e-23)
(2.99171e-05 -1.67326e-06 0)
(3.0865e-05 -1.73682e-06 3.54513e-23)
(3.17284e-05 -1.79871e-06 -3.56619e-25)
(3.2515e-05 -1.86895e-06 -2.10918e-23)
(3.3206e-05 -1.94578e-06 0)
(3.37945e-05 -2.00669e-06 -1.19936e-26)
(3.42896e-05 -2.05044e-06 0)
(3.46856e-05 -2.08546e-06 0)
(3.49842e-05 -2.11469e-06 -1.19757e-22)
(3.51803e-05 -2.1356e-06 -5.48446e-23)
(3.52674e-05 -2.14987e-06 -4.97478e-23)
(3.52578e-05 -2.15261e-06 -8.93885e-23)
(3.51371e-05 -2.15889e-06 -7.45981e-23)
(3.4908e-05 -2.14935e-06 -1.42773e-22)
(3.45814e-05 -2.14015e-06 -5.55864e-23)
(3.41369e-05 -2.12507e-06 -9.86356e-23)
(3.3593e-05 -2.09618e-06 -8.09465e-23)
(3.29516e-05 -2.068e-06 -8.78654e-23)
(3.22068e-05 -2.03296e-06 -3.93304e-23)
(3.13588e-05 -1.99561e-06 -2.02663e-23)
(3.04155e-05 -1.94753e-06 -4.55479e-25)
(2.93853e-05 -1.90036e-06 -3.23284e-23)
(2.82592e-05 -1.84704e-06 -3.40241e-23)
(2.70489e-05 -1.79182e-06 0)
(2.57534e-05 -1.73196e-06 -1.40405e-22)
(2.43753e-05 -1.67094e-06 -2.58409e-22)
(2.29224e-05 -1.60956e-06 1.14944e-23)
(2.13932e-05 -1.5482e-06 1.5076e-23)
(1.97838e-05 -1.48315e-06 1.57231e-24)
(1.81053e-05 -1.41947e-06 2.65953e-22)
(1.63374e-05 -1.34537e-06 0)
(1.4513e-05 -1.27932e-06 -3.3085e-22)
(1.25898e-05 -1.18912e-06 -2.24789e-23)
(1.05888e-05 -1.10876e-06 -8.82345e-25)
(8.51453e-06 -1.01259e-06 4.84148e-23)
(6.32388e-06 -9.13134e-07 -4.27403e-22)
(4.05436e-06 -8.00009e-07 -4.40346e-22)
(1.67509e-06 -6.78205e-07 8.73068e-22)
(-8.19259e-07 -5.40454e-07 2.6736e-23)
(-3.42079e-06 -4.00511e-07 -4.58823e-22)
(-6.13663e-06 -2.36328e-07 4.30539e-22)
(-8.95252e-06 -7.49434e-08 0)
(-1.19153e-05 1.20442e-07 6.33325e-24)
(-1.4973e-05 3.22385e-07 -3.53609e-25)
(-1.80573e-05 5.05071e-07 3.74498e-22)
(-2.13479e-05 7.49605e-07 0)
(-2.45197e-05 9.27007e-07 -3.23605e-22)
(-2.7806e-05 1.19132e-06 2.0518e-24)
(-3.11977e-05 1.40569e-06 -1.22952e-22)
(-3.44542e-05 1.66776e-06 0)
(-3.60147e-05 1.29577e-06 0)
(-4.07626e-05 2.66591e-06 -3.64611e-26)
(-4.32048e-05 2.87419e-06 7.79319e-26)
(-4.43081e-05 3.2923e-06 -1.55737e-25)
(-4.74525e-05 3.60259e-06 1.37045e-22)
(-4.84495e-05 3.66006e-06 -4.16739e-22)
(-5.03271e-05 3.88062e-06 -2.82024e-22)
(-5.10032e-05 3.97707e-06 7.07908e-22)
(-5.14372e-05 3.99604e-06 4.26757e-22)
(-5.149e-05 4.01135e-06 -9.90936e-22)
(-5.10217e-05 3.97581e-06 1.14452e-21)
(-5.01672e-05 3.91088e-06 -1.2734e-21)
(-4.89502e-05 3.80005e-06 -2.25803e-23)
(-4.73962e-05 3.67141e-06 7.09225e-23)
(-4.5507e-05 3.48173e-06 -4.79948e-23)
(-4.33919e-05 3.29512e-06 0)
(-4.10203e-05 3.11177e-06 1.84714e-21)
(-3.84888e-05 2.92173e-06 -9.93146e-22)
(-3.58211e-05 2.71065e-06 -9.73623e-22)
(-3.30416e-05 2.50152e-06 -6.41886e-23)
(-3.02035e-05 2.30124e-06 -1.94235e-21)
(-2.73112e-05 2.0897e-06 -6.51872e-23)
(-2.44223e-05 1.88535e-06 1.08249e-21)
(-2.15344e-05 1.68086e-06 -1.10005e-21)
(-1.86668e-05 1.48173e-06 0)
(-1.58382e-05 1.27853e-06 0)
(-1.30712e-05 1.0815e-06 0)
(-1.03597e-05 8.93419e-07 0)
(-7.72265e-06 7.0206e-07 0)
(-5.15877e-06 5.25313e-07 1.2114e-21)
(-2.67027e-06 3.47328e-07 -7.09288e-23)
(-2.65509e-07 1.75351e-07 5.65984e-22)
(2.05845e-06 7.3086e-09 5.97371e-22)
(4.29983e-06 -1.55791e-07 1.63771e-21)
(6.4597e-06 -3.1398e-07 5.51789e-22)
(8.54179e-06 -4.6584e-07 -1.0902e-21)
(1.05381e-05 -6.15089e-07 0)
(1.24597e-05 -7.50572e-07 5.29014e-22)
(1.43102e-05 -8.82557e-07 -5.19747e-22)
(1.60891e-05 -1.00506e-06 -5.09657e-22)
(1.77953e-05 -1.12443e-06 2.648e-22)
(1.94382e-05 -1.23343e-06 -2.58964e-22)
(2.10239e-05 -1.34715e-06 -1.46504e-23)
(2.25316e-05 -1.48887e-06 1.459e-23)
(2.39657e-05 -1.65569e-06 2.2413e-22)
(2.53171e-05 -1.81214e-06 -6.66836e-24)
(2.65824e-05 -1.94192e-06 1.17857e-22)
(2.77708e-05 -2.05979e-06 -1.07339e-22)
(2.88796e-05 -2.14959e-06 0)
(2.99117e-05 -2.22879e-06 1.41796e-24)
(3.08604e-05 -2.28995e-06 -2.35715e-23)
(3.17237e-05 -2.34181e-06 6.58778e-25)
(3.25101e-05 -2.39301e-06 -7.01898e-27)
(3.32016e-05 -2.44272e-06 2.28386e-24)
(3.37908e-05 -2.48213e-06 3.52544e-23)
(3.42868e-05 -2.51172e-06 -2.14116e-24)
(3.46834e-05 -2.53092e-06 -3.69164e-24)
(3.49826e-05 -2.54279e-06 6.04105e-23)
(3.51794e-05 -2.54516e-06 5.81269e-23)
(3.52674e-05 -2.53869e-06 -6.19941e-24)
(3.5258e-05 -2.51835e-06 8.96489e-23)
(3.51379e-05 -2.50241e-06 7.00441e-23)
(3.49096e-05 -2.46982e-06 1.96482e-22)
(3.45832e-05 -2.43739e-06 0)
(3.41397e-05 -2.39932e-06 9.28557e-23)
(3.35965e-05 -2.34605e-06 7.4092e-23)
(3.29554e-05 -2.29377e-06 1.11221e-22)
(3.22111e-05 -2.23445e-06 3.7279e-23)
(3.13638e-05 -2.17347e-06 -1.94378e-23)
(3.04212e-05 -2.10075e-06 0)
(2.93913e-05 -2.02966e-06 1.54942e-23)
(2.82658e-05 -1.95275e-06 -3.20449e-23)
(2.70559e-05 -1.87408e-06 -8.99033e-23)
(2.57609e-05 -1.79208e-06 2.50204e-22)
(2.43831e-05 -1.71055e-06 3.18266e-22)
(2.29305e-05 -1.6294e-06 0)
(2.14019e-05 -1.5466e-06 2.30726e-22)
(1.97931e-05 -1.45786e-06 -1.44255e-23)
(1.81153e-05 -1.36861e-06 0)
(1.63481e-05 -1.27082e-06 -2.92204e-22)
(1.45248e-05 -1.17797e-06 -2.01763e-23)
(1.26027e-05 -1.06453e-06 -9.884e-25)
(1.06025e-05 -9.53794e-07 2.16008e-23)
(8.52925e-06 -8.30429e-07 -7.38315e-22)
(6.3395e-06 -6.99554e-07 -7.41994e-22)
(4.07083e-06 -5.54383e-07 3.45372e-22)
(1.69233e-06 -3.98618e-07 -3.78236e-22)
(-8.01651e-07 -2.26176e-07 -2.54809e-23)
(-3.40271e-06 -4.78019e-08 4.37499e-22)
(-6.11835e-06 1.54776e-07 -4.10724e-22)
(-8.93389e-06 3.57862e-07 0)
(-1.18961e-05 5.91703e-07 -7.93478e-22)
(-1.4955e-05 8.39739e-07 0)
(-1.80391e-05 1.06533e-06 0)
(-2.13307e-05 1.34832e-06 0)