/*--------------------------------*- C++ -*----------------------------------*\
  =========                 |
  \\      /  F ield         | OpenFOAM: The Open Source CFD Toolbox
   \\    /   O peration     | Website:  https://openfoam.org
    \\  /    A nd           | Version:  9
     \\/     M anipulation  |
\*---------------------------------------------------------------------------*/
FoamFile
{
    format      ascii;
    class       volScalarField;
    location    "3000";
    object      k;
}
// * * * * * * * * * * * * * * * * * * * * * * * * * * * * * * * * * * * * * //

dimensions      [0 2 -2 0 0 0 0];

internalField   nonuniform List<scalar> 
14751
(
1.56877e-09
1.54274e-09
1.52817e-09
1.5105e-09
1.49381e-09
1.47739e-09
1.45967e-09
1.44227e-09
1.42461e-09
1.40689e-09
1.38927e-09
1.37228e-09
1.35552e-09
1.33951e-09
1.32457e-09
1.31035e-09
1.29736e-09
1.28514e-09
1.27428e-09
1.2646e-09
1.25642e-09
1.24961e-09
1.24419e-09
1.24013e-09
1.23761e-09
1.23644e-09
1.23655e-09
1.23796e-09
1.24058e-09
1.2445e-09
1.24974e-09
1.25628e-09
1.26411e-09
1.27319e-09
1.28353e-09
1.29509e-09
1.30773e-09
1.32156e-09
1.3364e-09
1.35209e-09
1.36826e-09
1.38459e-09
1.40095e-09
1.41749e-09
1.43434e-09
1.45137e-09
1.46848e-09
1.48558e-09
1.50256e-09
1.51931e-09
1.53557e-09
1.55109e-09
1.56597e-09
1.58041e-09
1.59437e-09
1.60777e-09
1.62057e-09
1.63272e-09
1.64419e-09
1.65505e-09
1.66539e-09
1.6751e-09
1.68414e-09
1.69234e-09
1.69965e-09
1.70627e-09
1.71223e-09
1.71752e-09
1.7221e-09
1.7261e-09
1.72957e-09
1.73251e-09
1.73496e-09
1.73691e-09
1.73836e-09
1.73933e-09
1.73982e-09
1.7398e-09
1.73946e-09
1.73842e-09
1.73692e-09
1.73462e-09
1.7319e-09
1.72864e-09
1.7247e-09
1.72013e-09
1.71497e-09
1.70899e-09
1.70226e-09
1.69465e-09
1.68639e-09
1.67723e-09
1.66716e-09
1.65638e-09
1.64319e-09
1.62975e-09
1.61282e-09
1.59351e-09
1.57329e-09
5.08936e-08
5.00673e-08
4.96322e-08
4.91285e-08
4.86743e-08
4.82365e-08
4.77619e-08
4.7299e-08
4.68279e-08
4.63533e-08
4.58802e-08
4.54254e-08
4.49762e-08
4.45482e-08
4.41513e-08
4.37747e-08
4.34339e-08
4.31151e-08
4.2837e-08
4.25946e-08
4.2398e-08
4.22435e-08
4.21316e-08
4.20618e-08
4.20397e-08
4.20597e-08
4.21201e-08
4.22219e-08
4.2362e-08
4.25437e-08
4.27674e-08
4.30328e-08
4.33397e-08
4.3687e-08
4.40751e-08
4.45033e-08
4.49663e-08
4.54684e-08
4.6003e-08
4.65651e-08
4.71428e-08
4.77235e-08
4.8303e-08
4.88864e-08
4.9478e-08
5.00738e-08
5.06692e-08
5.12617e-08
5.18481e-08
5.24246e-08
5.29825e-08
5.35123e-08
5.40176e-08
5.45056e-08
5.49745e-08
5.54221e-08
5.5846e-08
5.62453e-08
5.66187e-08
5.69676e-08
5.72953e-08
5.75979e-08
5.7874e-08
5.8119e-08
5.83308e-08
5.85153e-08
5.86733e-08
5.88048e-08
5.89083e-08
5.89878e-08
5.90445e-08
5.90785e-08
5.9091e-08
5.90816e-08
5.90505e-08
5.89977e-08
5.89238e-08
5.88279e-08
5.87157e-08
5.85758e-08
5.84155e-08
5.82239e-08
5.8014e-08
5.77831e-08
5.75266e-08
5.72469e-08
5.69453e-08
5.66158e-08
5.62615e-08
5.5879e-08
5.54769e-08
5.50465e-08
5.45906e-08
5.41179e-08
5.35772e-08
5.30416e-08
5.2411e-08
5.17301e-08
5.10528e-08
3.69971e-07
3.644e-07
3.62102e-07
3.5994e-07
3.58459e-07
3.57236e-07
3.55885e-07
3.54653e-07
3.53386e-07
3.52087e-07
3.50783e-07
3.49586e-07
3.48405e-07
3.47332e-07
3.46425e-07
3.45614e-07
3.44997e-07
3.44479e-07
3.44201e-07
3.4413e-07
3.44337e-07
3.44803e-07
3.45533e-07
3.46524e-07
3.47814e-07
3.49376e-07
3.51207e-07
3.53313e-07
3.55681e-07
3.5833e-07
3.61267e-07
3.64493e-07
3.68011e-07
3.71813e-07
3.75906e-07
3.80288e-07
3.84924e-07
3.89844e-07
3.94993e-07
4.00331e-07
4.05778e-07
4.11206e-07
4.16568e-07
4.21916e-07
4.27252e-07
4.32537e-07
4.37777e-07
4.42948e-07
4.4802e-07
4.5296e-07
4.57692e-07
4.62128e-07
4.66295e-07
4.7026e-07
4.74005e-07
4.77508e-07
4.80749e-07
4.83716e-07
4.86397e-07
4.8879e-07
4.9092e-07
4.92753e-07
4.9428e-07
4.95481e-07
4.9633e-07
4.96864e-07
4.97086e-07
4.96999e-07
4.96588e-07
4.95877e-07
4.94876e-07
4.93583e-07
4.92007e-07
4.90147e-07
4.88004e-07
4.85582e-07
4.82885e-07
4.79911e-07
4.76709e-07
4.73196e-07
4.69435e-07
4.65344e-07
4.61041e-07
4.56521e-07
4.51763e-07
4.46794e-07
4.41641e-07
4.36276e-07
4.30746e-07
4.25045e-07
4.19251e-07
4.13306e-07
4.0728e-07
4.01295e-07
3.95034e-07
3.89111e-07
3.82879e-07
3.76819e-07
3.71427e-07
1.27364e-06
1.25706e-06
1.25185e-06
1.24879e-06
1.2494e-06
1.25168e-06
1.25341e-06
1.25564e-06
1.25802e-06
1.26048e-06
1.26306e-06
1.2661e-06
1.2693e-06
1.27289e-06
1.27701e-06
1.28144e-06
1.28641e-06
1.29164e-06
1.29758e-06
1.30412e-06
1.31145e-06
1.31954e-06
1.3284e-06
1.338e-06
1.34843e-06
1.35966e-06
1.37167e-06
1.3845e-06
1.3981e-06
1.41254e-06
1.42782e-06
1.44395e-06
1.46096e-06
1.47881e-06
1.49752e-06
1.51709e-06
1.53742e-06
1.5586e-06
1.58042e-06
1.60271e-06
1.62529e-06
1.6476e-06
1.66923e-06
1.69024e-06
1.711e-06
1.73138e-06
1.75137e-06
1.77085e-06
1.78973e-06
1.80789e-06
1.82505e-06
1.84085e-06
1.85534e-06
1.86883e-06
1.88125e-06
1.89251e-06
1.90254e-06
1.91129e-06
1.91871e-06
1.92478e-06
1.92956e-06
1.93297e-06
1.93497e-06
1.93554e-06
1.9346e-06
1.93224e-06
1.92847e-06
1.92332e-06
1.91674e-06
1.90879e-06
1.89953e-06
1.88896e-06
1.8771e-06
1.86397e-06
1.84958e-06
1.83398e-06
1.81718e-06
1.79917e-06
1.7802e-06
1.75997e-06
1.73873e-06
1.7162e-06
1.69283e-06
1.66869e-06
1.64372e-06
1.61806e-06
1.59185e-06
1.56504e-06
1.53785e-06
1.51031e-06
1.48272e-06
1.45468e-06
1.42675e-06
1.39945e-06
1.37223e-06
1.34678e-06
1.32181e-06
1.29908e-06
1.27982e-06
2.66672e-06
2.63892e-06
2.63098e-06
2.6291e-06
2.63541e-06
2.64607e-06
2.6569e-06
2.66945e-06
2.68197e-06
2.69415e-06
2.70697e-06
2.72112e-06
2.73598e-06
2.75187e-06
2.76897e-06
2.78695e-06
2.80599e-06
2.8256e-06
2.84652e-06
2.86861e-06
2.89209e-06
2.9169e-06
2.94301e-06
2.97036e-06
2.99903e-06
3.02898e-06
3.06021e-06
3.0927e-06
3.12642e-06
3.16139e-06
3.19762e-06
3.2351e-06
3.27385e-06
3.31379e-06
3.35496e-06
3.39731e-06
3.44066e-06
3.48523e-06
3.53053e-06
3.57605e-06
3.6211e-06
3.66527e-06
3.70772e-06
3.74859e-06
3.7884e-06
3.82699e-06
3.86433e-06
3.90021e-06
3.93444e-06
3.96689e-06
3.99711e-06
4.0243e-06
4.04845e-06
4.07026e-06
4.08962e-06
4.10642e-06
4.12051e-06
4.13183e-06
4.14029e-06
4.14587e-06
4.14867e-06
4.1486e-06
4.14565e-06
4.13984e-06
4.13109e-06
4.11952e-06
4.10519e-06
4.08817e-06
4.06842e-06
4.04605e-06
4.02116e-06
3.99377e-06
3.96396e-06
3.93177e-06
3.89725e-06
3.86048e-06
3.82151e-06
3.78026e-06
3.73733e-06
3.69217e-06
3.64516e-06
3.5957e-06
3.54433e-06
3.49093e-06
3.43615e-06
3.3802e-06
3.32331e-06
3.26555e-06
3.20728e-06
3.14864e-06
3.0901e-06
3.03138e-06
2.97328e-06
2.91672e-06
2.8613e-06
2.80964e-06
2.7604e-06
2.71678e-06
2.68102e-06
4.0228e-06
3.98961e-06
3.97918e-06
3.97782e-06
3.98752e-06
4.00356e-06
4.02094e-06
4.04122e-06
4.06263e-06
4.08428e-06
4.10641e-06
4.12952e-06
4.1541e-06
4.18047e-06
4.20878e-06
4.23876e-06
4.27035e-06
4.30285e-06
4.33721e-06
4.37325e-06
4.4111e-06
4.45069e-06
4.49194e-06
4.53473e-06
4.57912e-06
4.62501e-06
4.67239e-06
4.72119e-06
4.77139e-06
4.82292e-06
4.87577e-06
4.92988e-06
4.98529e-06
5.04183e-06
5.09952e-06
5.15836e-06
5.21785e-06
5.27764e-06
5.33785e-06
5.3982e-06
5.45805e-06
5.51663e-06
5.57258e-06
5.62594e-06
5.67735e-06
5.72658e-06
5.77368e-06
5.81834e-06
5.8603e-06
5.89948e-06
5.93547e-06
5.9672e-06
5.9944e-06
6.01813e-06
6.03826e-06
6.05463e-06
6.06711e-06
6.07562e-06
6.08009e-06
6.08054e-06
6.07709e-06
6.06973e-06
6.05849e-06
6.04346e-06
6.02465e-06
6.00221e-06
5.97626e-06
5.94693e-06
5.91427e-06
5.87844e-06
5.83958e-06
5.79779e-06
5.7532e-06
5.70588e-06
5.65596e-06
5.60352e-06
5.54877e-06
5.49116e-06
5.43065e-06
5.36749e-06
5.30227e-06
5.23463e-06
5.16508e-06
5.09369e-06
5.02088e-06
4.9469e-06
4.872e-06
4.79629e-06
4.72019e-06
4.64387e-06
4.56781e-06
4.49191e-06
4.41695e-06
4.34397e-06
4.2729e-06
4.20643e-06
4.14376e-06
4.0889e-06
4.04515e-06
5.07072e-06
5.03482e-06
5.02115e-06
5.01823e-06
5.02745e-06
5.04421e-06
5.0633e-06
5.08604e-06
5.11112e-06
5.13799e-06
5.1667e-06
5.19729e-06
5.22939e-06
5.2628e-06
5.29869e-06
5.337e-06
5.37739e-06
5.41903e-06
5.46295e-06
5.50893e-06
5.55701e-06
5.60709e-06
5.65904e-06
5.71273e-06
5.76812e-06
5.82512e-06
5.88365e-06
5.94361e-06
6.00496e-06
6.06759e-06
6.13141e-06
6.19634e-06
6.26245e-06
6.32937e-06
6.39687e-06
6.46475e-06
6.53301e-06
6.60149e-06
6.67011e-06
6.73858e-06
6.80635e-06
6.87263e-06
6.93577e-06
6.9956e-06
7.05275e-06
7.1068e-06
7.15794e-06
7.20576e-06
7.24989e-06
7.29027e-06
7.32672e-06
7.35883e-06
7.38654e-06
7.40994e-06
7.42887e-06
7.44319e-06
7.45274e-06
7.45744e-06
7.45726e-06
7.45227e-06
7.44262e-06
7.42837e-06
7.40961e-06
7.38651e-06
7.35914e-06
7.32771e-06
7.29242e-06
7.25344e-06
7.21091e-06
7.16505e-06
7.11606e-06
7.0641e-06
7.00934e-06
6.95192e-06
6.89203e-06
6.82921e-06
6.76337e-06
6.69494e-06
6.62409e-06
6.55103e-06
6.47618e-06
6.39934e-06
6.32095e-06
6.24113e-06
6.1602e-06
6.07838e-06
5.99591e-06
5.91292e-06
5.82979e-06
5.74671e-06
5.66409e-06
5.58188e-06
5.5008e-06
5.42183e-06
5.34508e-06
5.27303e-06
5.20538e-06
5.14615e-06
5.09873e-06
5.82496e-06
5.78935e-06
5.77387e-06
5.76989e-06
5.77808e-06
5.79453e-06
5.81424e-06
5.83803e-06
5.86505e-06
5.89479e-06
5.92721e-06
5.96226e-06
5.9994e-06
6.03828e-06
6.07988e-06
6.12374e-06
6.17018e-06
6.21893e-06
6.27028e-06
6.32389e-06
6.37973e-06
6.43767e-06
6.49756e-06
6.55923e-06
6.62261e-06
6.68756e-06
6.75395e-06
6.82168e-06
6.89066e-06
6.96078e-06
7.03183e-06
7.10362e-06
7.17585e-06
7.24854e-06
7.32151e-06
7.39464e-06
7.46778e-06
7.54078e-06
7.61347e-06
7.68551e-06
7.75644e-06
7.82562e-06
7.89209e-06
7.95512e-06
8.01506e-06
8.07114e-06
8.12373e-06
8.17237e-06
8.21648e-06
8.25594e-06
8.29082e-06
8.32079e-06
8.34581e-06
8.36586e-06
8.38076e-06
8.39038e-06
8.39458e-06
8.39329e-06
8.3865e-06
8.37438e-06
8.3571e-06
8.33482e-06
8.30768e-06
8.27592e-06
8.2397e-06
8.19929e-06
8.15495e-06
8.10693e-06
8.05544e-06
8.00076e-06
7.94314e-06
7.88279e-06
7.81993e-06
7.75469e-06
7.68654e-06
7.61593e-06
7.5431e-06
7.46831e-06
7.3918e-06
7.31379e-06
7.23461e-06
7.15419e-06
7.07287e-06
6.99078e-06
6.90814e-06
6.82518e-06
6.74207e-06
6.65894e-06
6.57609e-06
6.49367e-06
6.41199e-06
6.33103e-06
6.25133e-06
6.17371e-06
6.09837e-06
6.02737e-06
5.96081e-06
5.90235e-06
5.85517e-06
6.35328e-06
6.32061e-06
6.30582e-06
6.30277e-06
6.31139e-06
6.32865e-06
6.34994e-06
6.37554e-06
6.40501e-06
6.43781e-06
6.47384e-06
6.51299e-06
6.5549e-06
6.59949e-06
6.64696e-06
6.6969e-06
6.74948e-06
6.80429e-06
6.86149e-06
6.92102e-06
6.98275e-06
7.04656e-06
7.11226e-06
7.17969e-06
7.24871e-06
7.31917e-06
7.3909e-06
7.46373e-06
7.53746e-06
7.61188e-06
7.68691e-06
7.76234e-06
7.83797e-06
7.91369e-06
7.98934e-06
8.06474e-06
8.13971e-06
8.21404e-06
8.28749e-06
8.35969e-06
8.43017e-06
8.49839e-06
8.56378e-06
8.62611e-06
8.68505e-06
8.73951e-06
8.79e-06
8.83609e-06
8.87709e-06
8.91275e-06
8.94326e-06
8.96844e-06
8.98823e-06
9.00254e-06
9.01123e-06
9.01419e-06
9.01133e-06
9.0026e-06
8.98802e-06
8.96782e-06
8.94223e-06
8.91147e-06
8.87576e-06
8.83537e-06
8.79057e-06
8.74168e-06
8.68899e-06
8.63284e-06
8.5735e-06
8.51128e-06
8.44646e-06
8.37929e-06
8.30999e-06
8.23822e-06
8.16444e-06
8.08902e-06
8.01221e-06
7.93423e-06
7.85538e-06
7.77585e-06
7.6959e-06
7.61552e-06
7.53497e-06
7.45436e-06
7.37387e-06
7.29366e-06
7.21387e-06
7.13459e-06
7.05605e-06
6.97834e-06
6.90167e-06
6.82598e-06
6.75166e-06
6.67936e-06
6.60926e-06
6.54308e-06
6.48108e-06
6.4265e-06
6.38238e-06
6.73169e-06
6.70372e-06
6.69183e-06
6.6917e-06
6.70257e-06
6.72217e-06
6.74648e-06
6.77601e-06
6.80965e-06
6.84682e-06
6.88737e-06
6.93109e-06
6.97764e-06
7.02695e-06
7.07911e-06
7.13379e-06
7.19104e-06
7.25051e-06
7.31231e-06
7.37627e-06
7.44228e-06
7.51019e-06
7.57981e-06
7.65094e-06
7.72345e-06
7.79715e-06
7.87186e-06
7.94738e-06
8.02351e-06
8.10007e-06
8.1769e-06
8.25379e-06
8.33054e-06
8.40701e-06
8.48299e-06
8.55828e-06
8.63266e-06
8.70586e-06
8.77759e-06
8.84745e-06
8.91497e-06
8.97964e-06
9.04099e-06
9.09883e-06
9.15299e-06
9.20301e-06
9.24872e-06
9.28974e-06
9.32528e-06
9.35503e-06
9.3793e-06
9.39799e-06
9.41101e-06
9.41828e-06
9.41969e-06
9.41518e-06
9.40471e-06
9.38829e-06
9.36595e-06
9.33797e-06
9.30462e-06
9.26616e-06
9.22287e-06
9.17507e-06
9.12308e-06
9.06725e-06
9.00794e-06
8.9455e-06
8.88027e-06
8.81254e-06
8.74264e-06
8.67078e-06
8.59697e-06
8.52151e-06
8.44487e-06
8.36738e-06
8.28927e-06
8.21071e-06
8.13202e-06
8.05338e-06
7.97499e-06
7.89688e-06
7.81924e-06
7.74215e-06
7.66574e-06
7.59013e-06
7.51541e-06
7.44166e-06
7.36901e-06
7.29751e-06
7.22731e-06
7.15829e-06
7.09074e-06
7.02517e-06
6.96173e-06
6.90189e-06
6.84596e-06
6.79677e-06
6.75728e-06
7.02091e-06
6.9987e-06
6.99212e-06
6.99713e-06
7.01234e-06
7.03587e-06
7.06416e-06
7.09752e-06
7.13498e-06
7.17592e-06
7.22017e-06
7.26751e-06
7.31765e-06
7.37052e-06
7.42613e-06
7.48417e-06
7.54467e-06
7.60729e-06
7.67207e-06
7.73881e-06
7.80741e-06
7.87771e-06
7.94949e-06
8.02258e-06
8.09679e-06
8.17195e-06
8.24784e-06
8.32426e-06
8.40102e-06
8.4779e-06
8.55473e-06
8.63129e-06
8.70737e-06
8.78278e-06
8.85731e-06
8.93072e-06
9.00275e-06
9.07311e-06
9.14147e-06
9.20742e-06
9.27052e-06
9.33033e-06
9.38648e-06
9.43874e-06
9.48687e-06
9.53046e-06
9.56946e-06
9.60353e-06
9.63227e-06
9.65546e-06
9.67309e-06
9.68508e-06
9.69135e-06
9.69182e-06
9.68643e-06
9.67515e-06
9.65801e-06
9.63502e-06
9.60621e-06
9.57197e-06
9.53257e-06
9.4883e-06
9.43948e-06
9.38645e-06
9.32955e-06
9.26917e-06
9.20568e-06
9.13944e-06
9.07079e-06
9.00005e-06
8.92752e-06
8.85332e-06
8.77768e-06
8.70111e-06
8.62397e-06
8.54658e-06
8.46916e-06
8.3918e-06
8.31481e-06
8.23838e-06
8.16272e-06
8.08782e-06
8.01384e-06
7.94083e-06
7.8689e-06
7.79812e-06
7.72858e-06
7.66028e-06
7.59335e-06
7.52779e-06
7.46369e-06
7.40093e-06
7.33971e-06
7.28049e-06
7.2234e-06
7.16975e-06
7.11988e-06
7.07627e-06
7.04182e-06
7.26619e-06
7.24951e-06
7.24784e-06
7.25754e-06
7.27672e-06
7.30377e-06
7.33551e-06
7.37214e-06
7.4127e-06
7.45656e-06
7.50356e-06
7.55349e-06
7.60612e-06
7.66137e-06
7.71919e-06
7.77929e-06
7.84169e-06
7.90605e-06
7.97237e-06
8.04046e-06
8.1102e-06
8.18141e-06
8.25391e-06
8.32747e-06
8.40194e-06
8.4771e-06
8.55275e-06
8.62867e-06
8.70466e-06
8.7805e-06
8.85599e-06
8.93092e-06
9.00506e-06
9.0782e-06
9.1501e-06
9.22052e-06
9.28917e-06
9.35575e-06
9.41991e-06
9.48128e-06
9.53946e-06
9.59407e-06
9.64482e-06
9.69147e-06
9.73376e-06
9.77142e-06
9.80433e-06
9.83215e-06
9.85457e-06
9.87149e-06
9.88296e-06
9.8889e-06
9.88925e-06
9.88395e-06
9.87298e-06
9.85636e-06
9.83414e-06
9.80643e-06
9.77335e-06
9.73516e-06
9.69213e-06
9.64456e-06
9.59276e-06
9.53708e-06
9.47788e-06
9.41551e-06
9.35036e-06
9.28278e-06
9.21311e-06
9.14166e-06
9.06869e-06
8.99426e-06
8.91888e-06
8.84298e-06
8.76689e-06
8.69092e-06
8.61527e-06
8.54013e-06
8.46572e-06
8.39218e-06
8.31967e-06
8.24818e-06
8.17783e-06
8.10869e-06
8.04081e-06
7.97428e-06
7.90913e-06
7.84538e-06
7.78311e-06
7.72232e-06
7.66306e-06
7.60522e-06
7.54899e-06
7.49481e-06
7.44286e-06
7.39441e-06
7.34986e-06
7.31155e-06
7.28232e-06
7.4904e-06
7.47799e-06
7.4804e-06
7.49395e-06
7.51637e-06
7.54624e-06
7.58069e-06
7.61978e-06
7.66255e-06
7.7084e-06
7.75717e-06
7.80869e-06
7.86275e-06
7.91927e-06
7.97817e-06
8.0392e-06
8.10233e-06
8.16726e-06
8.23396e-06
8.30222e-06
8.37193e-06
8.44292e-06
8.51499e-06
8.58794e-06
8.66158e-06
8.7357e-06
8.81009e-06
8.88454e-06
8.95882e-06
9.03274e-06
9.10607e-06
9.17859e-06
9.25008e-06
9.32032e-06
9.38905e-06
9.45603e-06
9.52095e-06
9.58354e-06
9.64345e-06
9.70035e-06
9.7539e-06
9.80377e-06
9.84973e-06
9.89156e-06
9.92901e-06
9.96189e-06
9.99003e-06
1.00132e-05
1.00311e-05
1.00437e-05
1.00511e-05
1.00533e-05
1.005e-05
1.00414e-05
1.00275e-05
1.00081e-05
9.98353e-06
9.95375e-06
9.91893e-06
9.87933e-06
9.83523e-06
9.78692e-06
9.7347e-06
9.67888e-06
9.61982e-06
9.55784e-06
9.4933e-06
9.42654e-06
9.35787e-06
9.28761e-06
9.21586e-06
9.14288e-06
9.06918e-06
8.99513e-06
8.92102e-06
8.84712e-06
8.77364e-06
8.70076e-06
8.62869e-06
8.55755e-06
8.4875e-06
8.41851e-06
8.35072e-06
8.28417e-06
8.21892e-06
8.15505e-06
8.09261e-06
8.03158e-06
7.97207e-06
7.91407e-06
7.85762e-06
7.80263e-06
7.7493e-06
7.69811e-06
7.64928e-06
7.60407e-06
7.56296e-06
7.52827e-06
7.5028e-06
7.70694e-06
7.69747e-06
7.70289e-06
7.71926e-06
7.74404e-06
7.77591e-06
7.81221e-06
7.85289e-06
7.89698e-06
7.94393e-06
7.99358e-06
8.04578e-06
8.10036e-06
8.15723e-06
8.2163e-06
8.27734e-06
8.3403e-06
8.40489e-06
8.47108e-06
8.53866e-06
8.60752e-06
8.67749e-06
8.74838e-06
8.81998e-06
8.89211e-06
8.96455e-06
9.0371e-06
9.10953e-06
9.18165e-06
9.25323e-06
9.32407e-06
9.39393e-06
9.4626e-06
9.52985e-06
9.59544e-06
9.65911e-06
9.72058e-06
9.77958e-06
9.83582e-06
9.88898e-06
9.93879e-06
9.98498e-06
1.00274e-05
1.00657e-05
1.00998e-05
1.01296e-05
1.01547e-05
1.01751e-05
1.01906e-05
1.02012e-05
1.02068e-05
1.02075e-05
1.02031e-05
1.01937e-05
1.01792e-05
1.01597e-05
1.01353e-05
1.0106e-05
1.0072e-05
1.00335e-05
9.9907e-06
9.94397e-06
9.89352e-06
9.83965e-06
9.78266e-06
9.72284e-06
9.66053e-06
9.59604e-06
9.52965e-06
9.46164e-06
9.392e-06
9.3212e-06
9.24964e-06
9.17767e-06
9.10554e-06
9.03351e-06
8.96181e-06
8.8906e-06
8.8201e-06
8.75041e-06
8.68169e-06
8.61394e-06
8.54728e-06
8.48177e-06
8.41749e-06
8.35452e-06
8.29291e-06
8.23269e-06
8.17394e-06
8.11668e-06
8.06098e-06
8.00675e-06
7.95425e-06
7.90397e-06
7.85623e-06
7.81233e-06
7.77281e-06
7.74004e-06
7.71683e-06
7.92372e-06
7.9159e-06
7.9232e-06
7.94136e-06
7.96758e-06
8.00062e-06
8.03795e-06
8.07942e-06
8.12407e-06
8.17135e-06
8.22114e-06
8.2733e-06
8.32769e-06
8.3842e-06
8.44276e-06
8.50314e-06
8.56529e-06
8.62895e-06
8.69405e-06
8.76041e-06
8.82792e-06
8.89642e-06
8.96571e-06
9.03561e-06
9.10592e-06
9.17643e-06
9.24695e-06
9.31726e-06
9.38715e-06
9.45642e-06
9.52486e-06
9.59226e-06
9.65839e-06
9.72303e-06
9.78596e-06
9.84694e-06
9.9057e-06
9.96199e-06
1.00156e-05
1.00661e-05
1.01135e-05
1.01574e-05
1.01977e-05
1.02342e-05
1.02668e-05
1.02952e-05
1.03193e-05
1.03391e-05
1.03542e-05
1.03649e-05
1.03709e-05
1.03723e-05
1.0369e-05
1.03609e-05
1.03481e-05
1.03306e-05
1.03084e-05
1.02817e-05
1.02505e-05
1.02149e-05
1.01753e-05
1.01318e-05
1.00847e-05
1.00341e-05
9.98041e-06
9.92385e-06
9.86469e-06
9.80322e-06
9.73974e-06
9.67434e-06
9.60713e-06
9.53858e-06
9.46908e-06
9.39889e-06
9.32829e-06
9.25753e-06
9.18684e-06
9.1164e-06
9.04642e-06
8.97701e-06
8.90835e-06
8.84043e-06
8.77341e-06
8.70737e-06
8.6424e-06
8.57861e-06
8.51606e-06
8.45481e-06
8.39497e-06
8.33659e-06
8.27974e-06
8.22438e-06
8.1708e-06
8.11959e-06
8.0711e-06
8.02674e-06
7.98712e-06
7.9547e-06
7.93232e-06
8.14526e-06
8.13793e-06
8.14606e-06
8.16506e-06
8.19191e-06
8.22538e-06
8.26303e-06
8.30463e-06
8.3492e-06
8.39623e-06
8.4456e-06
8.4972e-06
8.55089e-06
8.60658e-06
8.66418e-06
8.72349e-06
8.78447e-06
8.84685e-06
8.91058e-06
8.97548e-06
9.04145e-06
9.10833e-06
9.17593e-06
9.24409e-06
9.3126e-06
9.38128e-06
9.44992e-06
9.51831e-06
9.58628e-06
9.65361e-06
9.72011e-06
9.78557e-06
9.84979e-06
9.91255e-06
9.97364e-06
1.00328e-05
1.00899e-05
1.01446e-05
1.01968e-05
1.02462e-05
1.02925e-05
1.03357e-05
1.03756e-05
1.04119e-05
1.04446e-05
1.04735e-05
1.04985e-05
1.05194e-05
1.05362e-05
1.05487e-05
1.0557e-05
1.05609e-05
1.05604e-05
1.05554e-05
1.0546e-05
1.05321e-05
1.05137e-05
1.0491e-05
1.04639e-05
1.04325e-05
1.03971e-05
1.03578e-05
1.03148e-05
1.02683e-05
1.02185e-05
1.01656e-05
1.01099e-05
1.00517e-05
9.99121e-06
9.92829e-06
9.86333e-06
9.79672e-06
9.72879e-06
9.6598e-06
9.59003e-06
9.51974e-06
9.44915e-06
9.37847e-06
9.30791e-06
9.2376e-06
9.16774e-06
9.09834e-06
9.0296e-06
8.9616e-06
8.89448e-06
8.82835e-06
8.76333e-06
8.69949e-06
8.63698e-06
8.57587e-06
8.51628e-06
8.4582e-06
8.40197e-06
8.34824e-06
8.29747e-06
8.25114e-06
8.20997e-06
8.17652e-06
8.15369e-06
8.37408e-06
8.36623e-06
8.37428e-06
8.39333e-06
8.42013e-06
8.45342e-06
8.49085e-06
8.53206e-06
8.57611e-06
8.62248e-06
8.67107e-06
8.72177e-06
8.77446e-06
8.82906e-06
8.88549e-06
8.94356e-06
9.00323e-06
9.06425e-06
9.12657e-06
9.19002e-06
9.2545e-06
9.31987e-06
9.38597e-06
9.45261e-06
9.51961e-06
9.5868e-06
9.65397e-06
9.72094e-06
9.78752e-06
9.85353e-06
9.91877e-06
9.98305e-06
1.00462e-05
1.0108e-05
1.01682e-05
1.02267e-05
1.02833e-05
1.03377e-05
1.03898e-05
1.04393e-05
1.04861e-05
1.053e-05
1.05709e-05
1.06086e-05
1.0643e-05
1.0674e-05
1.07013e-05
1.07249e-05
1.07447e-05
1.07606e-05
1.07725e-05
1.07803e-05
1.07839e-05
1.07833e-05
1.07783e-05
1.0769e-05
1.07554e-05
1.07374e-05
1.07151e-05
1.06885e-05
1.06579e-05
1.06232e-05
1.05846e-05
1.05423e-05
1.04964e-05
1.04472e-05
1.03949e-05
1.03398e-05
1.02819e-05
1.02211e-05
1.0158e-05
1.00927e-05
1.00258e-05
9.95728e-06
9.88757e-06
9.8169e-06
9.74553e-06
9.67365e-06
9.60151e-06
9.52926e-06
9.45713e-06
9.38515e-06
9.31353e-06
9.24241e-06
9.17192e-06
9.10225e-06
9.03351e-06
8.96583e-06
8.8994e-06
8.83431e-06
8.7707e-06
8.70863e-06
8.64849e-06
8.59099e-06
8.5367e-06
8.48718e-06
8.44329e-06
8.40765e-06
8.38329e-06
8.61147e-06
8.6023e-06
8.60953e-06
8.628e-06
8.65422e-06
8.68689e-06
8.72369e-06
8.76419e-06
8.80743e-06
8.85289e-06
8.9005e-06
8.95014e-06
9.00172e-06
9.05516e-06
9.11039e-06
9.16725e-06
9.22567e-06
9.28544e-06
9.3465e-06
9.40871e-06
9.47197e-06
9.53615e-06
9.6011e-06
9.66664e-06
9.73262e-06
9.79884e-06
9.86513e-06
9.93131e-06
9.99721e-06
1.00626e-05
1.01274e-05
1.01914e-05
1.02544e-05
1.03162e-05
1.03766e-05
1.04355e-05
1.04927e-05
1.0548e-05
1.06012e-05
1.06521e-05
1.07006e-05
1.07465e-05
1.07898e-05
1.08301e-05
1.08674e-05
1.09016e-05
1.09325e-05
1.09599e-05
1.09838e-05
1.1004e-05
1.10204e-05
1.10329e-05
1.10413e-05
1.10456e-05
1.10457e-05
1.10416e-05
1.1033e-05
1.10201e-05
1.10029e-05
1.09813e-05
1.09553e-05
1.09252e-05
1.08909e-05
1.08527e-05
1.08106e-05
1.07648e-05
1.07155e-05
1.0663e-05
1.06072e-05
1.05481e-05
1.04862e-05
1.04217e-05
1.0355e-05
1.02864e-05
1.0216e-05
1.01442e-05
1.00713e-05
9.99742e-06
9.92289e-06
9.84786e-06
9.7726e-06
9.69716e-06
9.62179e-06
9.54664e-06
9.47188e-06
9.39773e-06
9.32435e-06
9.25189e-06
9.18058e-06
9.11055e-06
9.04198e-06
8.97497e-06
8.90995e-06
8.84774e-06
8.78898e-06
8.73532e-06
8.68777e-06
8.64903e-06
8.62227e-06
8.85809e-06
8.84692e-06
8.85278e-06
8.8702e-06
8.89546e-06
8.92722e-06
8.96314e-06
9.00273e-06
9.04501e-06
9.08948e-06
9.13606e-06
9.18464e-06
9.23514e-06
9.2875e-06
9.34166e-06
9.39746e-06
9.45486e-06
9.51364e-06
9.57375e-06
9.63508e-06
9.69752e-06
9.76096e-06
9.82525e-06
9.89024e-06
9.95576e-06
1.00216e-05
1.00877e-05
1.01538e-05
1.02198e-05
1.02855e-05
1.03507e-05
1.04152e-05
1.04789e-05
1.05417e-05
1.06033e-05
1.06636e-05
1.07224e-05
1.07796e-05
1.08349e-05
1.08882e-05
1.09395e-05
1.09884e-05
1.10349e-05
1.10787e-05
1.11199e-05
1.11581e-05
1.11932e-05
1.12251e-05
1.12537e-05
1.12788e-05
1.13002e-05
1.13177e-05
1.13314e-05
1.13409e-05
1.13462e-05
1.13472e-05
1.13439e-05
1.1336e-05
1.13236e-05
1.13067e-05
1.12853e-05
1.12595e-05
1.12292e-05
1.11946e-05
1.11558e-05
1.11129e-05
1.10662e-05
1.10159e-05
1.09616e-05
1.09037e-05
1.08424e-05
1.07782e-05
1.07112e-05
1.06418e-05
1.05702e-05
1.04967e-05
1.04215e-05
1.03451e-05
1.02675e-05
1.01891e-05
1.01101e-05
1.00305e-05
9.95078e-06
9.87096e-06
9.79128e-06
9.71199e-06
9.63329e-06
9.55538e-06
9.47852e-06
9.40288e-06
9.32867e-06
9.25602e-06
9.18544e-06
9.11781e-06
9.05387e-06
8.99538e-06
8.94345e-06
8.90092e-06
8.87108e-06
9.11414e-06
9.10047e-06
9.10456e-06
9.12061e-06
9.1447e-06
9.17536e-06
9.21028e-06
9.2489e-06
9.2902e-06
9.3337e-06
9.37931e-06
9.42694e-06
9.47652e-06
9.52799e-06
9.58132e-06
9.63634e-06
9.69303e-06
9.75119e-06
9.81076e-06
9.87164e-06
9.93375e-06
9.99696e-06
1.00612e-05
1.01262e-05
1.01919e-05
1.02581e-05
1.03247e-05
1.03914e-05
1.04582e-05
1.05248e-05
1.05912e-05
1.06571e-05
1.07224e-05
1.0787e-05
1.08506e-05
1.09131e-05
1.09743e-05
1.10342e-05
1.10925e-05
1.1149e-05
1.12037e-05
1.12563e-05
1.13067e-05
1.13546e-05
1.14001e-05
1.14428e-05
1.14827e-05
1.15194e-05
1.15529e-05
1.15831e-05
1.16096e-05
1.16323e-05
1.16511e-05
1.16657e-05
1.16762e-05
1.16822e-05
1.16837e-05
1.16805e-05
1.16727e-05
1.16602e-05
1.16429e-05
1.16208e-05
1.15941e-05
1.15627e-05
1.15267e-05
1.14863e-05
1.14417e-05
1.1393e-05
1.13398e-05
1.12825e-05
1.12215e-05
1.1157e-05
1.10893e-05
1.10186e-05
1.09452e-05
1.08695e-05
1.07918e-05
1.07123e-05
1.06313e-05
1.05491e-05
1.04659e-05
1.03818e-05
1.02972e-05
1.02123e-05
1.01273e-05
1.00424e-05
9.95794e-06
9.87414e-06
9.79127e-06
9.70955e-06
9.62924e-06
9.5505e-06
9.47388e-06
9.40033e-06
9.33072e-06
9.26688e-06
9.21006e-06
9.16321e-06
9.12978e-06
9.37963e-06
9.36308e-06
9.36514e-06
9.37963e-06
9.40242e-06
9.43194e-06
9.46585e-06
9.50352e-06
9.54392e-06
9.58657e-06
9.63136e-06
9.67823e-06
9.72712e-06
9.77798e-06
9.83078e-06
9.88538e-06
9.94175e-06
9.9997e-06
1.00592e-05
1.01201e-05
1.01824e-05
1.02459e-05
1.03106e-05
1.03762e-05
1.04427e-05
1.05099e-05
1.05776e-05
1.06456e-05
1.07139e-05
1.07822e-05
1.08505e-05
1.09184e-05
1.0986e-05
1.1053e-05
1.11192e-05
1.11846e-05
1.12489e-05
1.13121e-05
1.13739e-05
1.14341e-05
1.14927e-05
1.15493e-05
1.1604e-05
1.16564e-05
1.17064e-05
1.17538e-05
1.17985e-05
1.18401e-05
1.18786e-05
1.19137e-05
1.19452e-05
1.19729e-05
1.19966e-05
1.20162e-05
1.20313e-05
1.2042e-05
1.2048e-05
1.20492e-05
1.20455e-05
1.20368e-05
1.20231e-05
1.20044e-05
1.19807e-05
1.1952e-05
1.19184e-05
1.18801e-05
1.1837e-05
1.17894e-05
1.17369e-05
1.16799e-05
1.16187e-05
1.15536e-05
1.14847e-05
1.14125e-05
1.13371e-05
1.12589e-05
1.11783e-05
1.10955e-05
1.10108e-05
1.09244e-05
1.08368e-05
1.0748e-05
1.06583e-05
1.0568e-05
1.04774e-05
1.03867e-05
1.02962e-05
1.02062e-05
1.01171e-05
1.0029e-05
9.94228e-06
9.85714e-06
9.77417e-06
9.69439e-06
9.61877e-06
9.54922e-06
9.48716e-06
9.43562e-06
9.39827e-06
9.65443e-06
9.63474e-06
9.63463e-06
9.64747e-06
9.66895e-06
9.69734e-06
9.73031e-06
9.76713e-06
9.80678e-06
9.84875e-06
9.89295e-06
9.93931e-06
9.98779e-06
1.00384e-05
1.0091e-05
1.01455e-05
1.0202e-05
1.02602e-05
1.032e-05
1.03815e-05
1.04444e-05
1.05088e-05
1.05745e-05
1.06413e-05
1.07091e-05
1.07778e-05
1.08472e-05
1.09172e-05
1.09875e-05
1.1058e-05
1.11287e-05
1.11992e-05
1.12696e-05
1.13395e-05
1.14089e-05
1.14776e-05
1.15454e-05
1.16122e-05
1.16778e-05
1.17421e-05
1.18048e-05
1.18657e-05
1.19248e-05
1.19817e-05
1.20363e-05
1.20884e-05
1.21377e-05
1.21841e-05
1.22274e-05
1.22672e-05
1.23034e-05
1.23358e-05
1.23641e-05
1.23881e-05
1.24076e-05
1.24225e-05
1.24325e-05
1.24375e-05
1.24375e-05
1.24322e-05
1.24217e-05
1.24059e-05
1.23847e-05
1.23583e-05
1.23267e-05
1.22899e-05
1.22481e-05
1.22012e-05
1.21491e-05
1.20921e-05
1.20304e-05
1.19643e-05
1.18941e-05
1.18201e-05
1.17425e-05
1.16616e-05
1.15779e-05
1.14916e-05
1.1403e-05
1.13125e-05
1.12203e-05
1.11266e-05
1.10318e-05
1.0936e-05
1.08396e-05
1.07429e-05
1.06463e-05
1.055e-05
1.04544e-05
1.03598e-05
1.02666e-05
1.01748e-05
1.00853e-05
9.99914e-06
9.9173e-06
9.84182e-06
9.77428e-06
9.71781e-06
9.67628e-06
9.93835e-06
9.91537e-06
9.91302e-06
9.92422e-06
9.94443e-06
9.97178e-06
1.00039e-05
1.00401e-05
1.00791e-05
1.01207e-05
1.01645e-05
1.02106e-05
1.0259e-05
1.03096e-05
1.03624e-05
1.04173e-05
1.04743e-05
1.05331e-05
1.05938e-05
1.06562e-05
1.07203e-05
1.0786e-05
1.08531e-05
1.09216e-05
1.09913e-05
1.1062e-05
1.11336e-05
1.12058e-05
1.12787e-05
1.13519e-05
1.14254e-05
1.14989e-05
1.15724e-05
1.16456e-05
1.17185e-05
1.17908e-05
1.18623e-05
1.1933e-05
1.20026e-05
1.20709e-05
1.21378e-05
1.2203e-05
1.22664e-05
1.23278e-05
1.23868e-05
1.24434e-05
1.24973e-05
1.25482e-05
1.25959e-05
1.26401e-05
1.26806e-05
1.27173e-05
1.27497e-05
1.27777e-05
1.28012e-05
1.28198e-05
1.28334e-05
1.28418e-05
1.28449e-05
1.28426e-05
1.28348e-05
1.28214e-05
1.28025e-05
1.27779e-05
1.27479e-05
1.27124e-05
1.26715e-05
1.2625e-05
1.2573e-05
1.25157e-05
1.24534e-05
1.23862e-05
1.23145e-05
1.22385e-05
1.21586e-05
1.2075e-05
1.19882e-05
1.18983e-05
1.18059e-05
1.17111e-05
1.16143e-05
1.15157e-05
1.14157e-05
1.13144e-05
1.12123e-05
1.11096e-05
1.10068e-05
1.09041e-05
1.08021e-05
1.07009e-05
1.0601e-05
1.05027e-05
1.04065e-05
1.03138e-05
1.02256e-05
1.01441e-05
1.00709e-05
1.00094e-05
9.96356e-06
1.02312e-05
1.02048e-05
1.02003e-05
1.02099e-05
1.02289e-05
1.02553e-05
1.02868e-05
1.03224e-05
1.03612e-05
1.04025e-05
1.04463e-05
1.04925e-05
1.05411e-05
1.0592e-05
1.06454e-05
1.0701e-05
1.07588e-05
1.08187e-05
1.08805e-05
1.09443e-05
1.101e-05
1.10774e-05
1.11464e-05
1.12169e-05
1.12888e-05
1.13619e-05
1.1436e-05
1.1511e-05
1.15867e-05
1.16629e-05
1.17395e-05
1.18163e-05
1.18932e-05
1.19699e-05
1.20464e-05
1.21224e-05
1.21977e-05
1.22723e-05
1.23459e-05
1.24183e-05
1.24893e-05
1.25587e-05
1.26263e-05
1.26919e-05
1.27552e-05
1.2816e-05
1.2874e-05
1.29291e-05
1.29808e-05
1.30291e-05
1.30736e-05
1.3114e-05
1.31502e-05
1.31818e-05
1.32087e-05
1.32306e-05
1.32473e-05
1.32587e-05
1.32646e-05
1.32648e-05
1.32593e-05
1.3248e-05
1.32309e-05
1.32079e-05
1.31791e-05
1.31446e-05
1.31045e-05
1.30582e-05
1.30061e-05
1.29484e-05
1.28852e-05
1.28169e-05
1.27436e-05
1.26657e-05
1.25834e-05
1.24971e-05
1.24071e-05
1.23138e-05
1.22175e-05
1.21185e-05
1.20172e-05
1.19138e-05
1.18086e-05
1.17019e-05
1.15941e-05
1.14854e-05
1.13764e-05
1.12675e-05
1.1159e-05
1.10513e-05
1.09448e-05
1.08398e-05
1.0737e-05
1.06377e-05
1.05432e-05
1.04555e-05
1.03767e-05
1.031e-05
1.02598e-05
1.05327e-05
1.0503e-05
1.04962e-05
1.05043e-05
1.05223e-05
1.0548e-05
1.0579e-05
1.06143e-05
1.06529e-05
1.06943e-05
1.07382e-05
1.07848e-05
1.08339e-05
1.08855e-05
1.09397e-05
1.09964e-05
1.10554e-05
1.11167e-05
1.11801e-05
1.12456e-05
1.13131e-05
1.13826e-05
1.14538e-05
1.15267e-05
1.16011e-05
1.16769e-05
1.17538e-05
1.18317e-05
1.19105e-05
1.19899e-05
1.20698e-05
1.215e-05
1.22303e-05
1.23106e-05
1.23908e-05
1.24705e-05
1.25497e-05
1.26281e-05
1.27056e-05
1.27819e-05
1.28569e-05
1.29303e-05
1.30018e-05
1.30713e-05
1.31386e-05
1.32033e-05
1.32651e-05
1.3324e-05
1.33795e-05
1.34313e-05
1.34794e-05
1.35232e-05
1.35627e-05
1.35975e-05
1.36274e-05
1.36522e-05
1.36717e-05
1.36856e-05
1.36938e-05
1.36963e-05
1.36927e-05
1.36832e-05
1.36676e-05
1.36459e-05
1.36182e-05
1.35844e-05
1.35448e-05
1.34986e-05
1.34464e-05
1.33881e-05
1.33241e-05
1.32546e-05
1.31798e-05
1.30999e-05
1.30153e-05
1.29263e-05
1.28333e-05
1.27366e-05
1.26366e-05
1.25335e-05
1.24278e-05
1.23197e-05
1.22095e-05
1.20974e-05
1.1984e-05
1.18695e-05
1.17544e-05
1.16392e-05
1.15243e-05
1.14102e-05