/*--------------------------------*- C++ -*----------------------------------*\
  =========                 |
  \\      /  F ield         | OpenFOAM: The Open Source CFD Toolbox
   \\    /   O peration     | Website:  https://openfoam.org
    \\  /    A nd           | Version:  9
     \\/     M anipulation  |
\*---------------------------------------------------------------------------*/
FoamFile
{
    format      ascii;
    class       volScalarField;
    location    "3000";
    object      nut;
}
// * * * * * * * * * * * * * * * * * * * * * * * * * * * * * * * * * * * * * //

dimensions      [0 2 -1 0 0 0 0];

internalField   nonuniform List<scalar> 
14751
(
1.56863e-11
1.54254e-11
1.52813e-11
1.51057e-11
1.49397e-11
1.47762e-11
1.45997e-11
1.44261e-11
1.42495e-11
1.40722e-11
1.38959e-11
1.37249e-11
1.35551e-11
1.33931e-11
1.32423e-11
1.30992e-11
1.29687e-11
1.2846e-11
1.27368e-11
1.26401e-11
1.25591e-11
1.24918e-11
1.24383e-11
1.23993e-11
1.23765e-11
1.23668e-11
1.23695e-11
1.23845e-11
1.2411e-11
1.24505e-11
1.25033e-11
1.25689e-11
1.26475e-11
1.27386e-11
1.28423e-11
1.29578e-11
1.30833e-11
1.32208e-11
1.33684e-11
1.35235e-11
1.36824e-11
1.3843e-11
1.40046e-11
1.41687e-11
1.43369e-11
1.45068e-11
1.46774e-11
1.48481e-11
1.50174e-11
1.51845e-11
1.53468e-11
1.55019e-11
1.56509e-11
1.57956e-11
1.59353e-11
1.60697e-11
1.61979e-11
1.63197e-11
1.64348e-11
1.65447e-11
1.66505e-11
1.67507e-11
1.68446e-11
1.69288e-11
1.70031e-11
1.70705e-11
1.71311e-11
1.71845e-11
1.72303e-11
1.72703e-11
1.73049e-11
1.73342e-11
1.73586e-11
1.7378e-11
1.73925e-11
1.74021e-11
1.74068e-11
1.74066e-11
1.7403e-11
1.73926e-11
1.73774e-11
1.73543e-11
1.73269e-11
1.72939e-11
1.72538e-11
1.72074e-11
1.71551e-11
1.70941e-11
1.70251e-11
1.69468e-11
1.68617e-11
1.67691e-11
1.66686e-11
1.65609e-11
1.64292e-11
1.62951e-11
1.61263e-11
1.59338e-11
1.57324e-11
2.99856e-09
2.95049e-09
2.92869e-09
2.90462e-09
2.88506e-09
2.86712e-09
2.84731e-09
2.82838e-09
2.80889e-09
2.7891e-09
2.76927e-09
2.75018e-09
2.73102e-09
2.71292e-09
2.69648e-09
2.68102e-09
2.66748e-09
2.65495e-09
2.64458e-09
2.63619e-09
2.63041e-09
2.62691e-09
2.62575e-09
2.62702e-09
2.6311e-09
2.63747e-09
2.64602e-09
2.65679e-09
2.66961e-09
2.6848e-09
2.70241e-09
2.72242e-09
2.74485e-09
2.76964e-09
2.79681e-09
2.82625e-09
2.85763e-09
2.89131e-09
2.92689e-09
2.9639e-09
3.00158e-09
3.03933e-09
3.07693e-09
3.11477e-09
3.15314e-09
3.19163e-09
3.22991e-09
3.26783e-09
3.30519e-09
3.34176e-09
3.37697e-09
3.41027e-09
3.44188e-09
3.4722e-09
3.50111e-09
3.52846e-09
3.55409e-09
3.57794e-09
3.59991e-09
3.62025e-09
3.63918e-09
3.65635e-09
3.67164e-09
3.68448e-09
3.69472e-09
3.70293e-09
3.70914e-09
3.71324e-09
3.71514e-09
3.71517e-09
3.71343e-09
3.70989e-09
3.70463e-09
3.69765e-09
3.68894e-09
3.67852e-09
3.66643e-09
3.65262e-09
3.63747e-09
3.62028e-09
3.60154e-09
3.58059e-09
3.55829e-09
3.53445e-09
3.50885e-09
3.48173e-09
3.45322e-09
3.42295e-09
3.39119e-09
3.35779e-09
3.32339e-09
3.28778e-09
3.25129e-09
3.21442e-09
3.17431e-09
3.13568e-09
3.0929e-09
3.04913e-09
3.00767e-09
6.28139e-08
6.19261e-08
6.17468e-08
6.16738e-08
6.17949e-08
6.19992e-08
6.2208e-08
6.24585e-08
6.2712e-08
6.2966e-08
6.32213e-08
6.34926e-08
6.37595e-08
6.40403e-08
6.43439e-08
6.46552e-08
6.49917e-08
6.53326e-08
6.57048e-08
6.61028e-08
6.65409e-08
6.70132e-08
6.75208e-08
6.80646e-08
6.86529e-08
6.92777e-08
6.99383e-08
7.06358e-08
7.13677e-08
7.21403e-08
7.29558e-08
7.38145e-08
7.47177e-08
7.56646e-08
7.66565e-08
7.76919e-08
7.87637e-08
7.98805e-08
8.10313e-08
8.22061e-08
8.33878e-08
8.45542e-08
8.56966e-08
8.68277e-08
8.79442e-08
8.90345e-08
9.01021e-08
9.11419e-08
9.21481e-08
9.3114e-08
9.40236e-08
9.48591e-08
9.56268e-08
9.63386e-08
9.69905e-08
9.75784e-08
9.80973e-08
9.85451e-08
9.89191e-08
9.92214e-08
9.94578e-08
9.96191e-08
9.97031e-08
9.97015e-08
9.96087e-08
9.94353e-08
9.91823e-08
9.8849e-08
9.84321e-08
9.79389e-08
9.73719e-08
9.67313e-08
9.60198e-08
9.52375e-08
9.43862e-08
9.34679e-08
9.24845e-08
9.14366e-08
9.03361e-08
8.9168e-08
8.79477e-08
8.66604e-08
8.53327e-08
8.39652e-08
8.2557e-08
8.11174e-08
7.96539e-08
7.81639e-08
7.66597e-08
7.51437e-08
7.36346e-08
7.21281e-08
7.06441e-08
6.92087e-08
6.77703e-08
6.64558e-08
6.51562e-08
6.39736e-08
6.30029e-08
4.1409e-07
4.09757e-07
4.10549e-07
4.12748e-07
4.16995e-07
4.22261e-07
4.27556e-07
4.33283e-07
4.39244e-07
4.45386e-07
4.51669e-07
4.5818e-07
4.64763e-07
4.7149e-07
4.78385e-07
4.85342e-07
4.92436e-07
4.9952e-07
5.06762e-07
5.14114e-07
5.2165e-07
5.29332e-07
5.37156e-07
5.45112e-07
5.53237e-07
5.61493e-07
5.69879e-07
5.78394e-07
5.87027e-07
5.95802e-07
6.04733e-07
6.1382e-07
6.23072e-07
6.32479e-07
6.42051e-07
6.5178e-07
6.61621e-07
6.71631e-07
6.81711e-07
6.9179e-07
7.018e-07
7.11496e-07
7.20692e-07
7.29401e-07
7.37807e-07
7.45847e-07
7.53516e-07
7.60774e-07
7.67575e-07
7.73874e-07
7.79551e-07
7.84453e-07
7.88626e-07
7.92186e-07
7.95111e-07
7.97376e-07
7.98948e-07
7.99818e-07
7.99969e-07
7.99405e-07
7.98176e-07
7.9623e-07
7.93566e-07
7.90171e-07
7.86008e-07
7.81138e-07
7.7558e-07
7.69349e-07
7.62428e-07
7.54869e-07
7.467e-07
7.37933e-07
7.286e-07
7.18713e-07
7.08299e-07
6.97388e-07
6.86006e-07
6.74167e-07
6.61985e-07
6.49362e-07
6.36424e-07
6.23069e-07
6.0952e-07
5.95827e-07
5.81982e-07
5.68066e-07
5.54153e-07
5.40248e-07
5.26462e-07
5.12825e-07
4.99478e-07
4.86267e-07
4.73475e-07
4.61317e-07
4.49649e-07
4.39159e-07
4.29422e-07
4.2119e-07
4.14943e-07
1.33447e-06
1.32703e-06
1.33514e-06
1.34893e-06
1.37039e-06
1.39605e-06
1.42287e-06
1.4518e-06
1.48124e-06
1.51087e-06
1.5413e-06
1.57287e-06
1.60497e-06
1.63771e-06
1.67104e-06
1.70464e-06
1.73857e-06
1.77234e-06
1.80644e-06
1.84066e-06
1.87515e-06
1.90977e-06
1.94446e-06
1.97913e-06
2.01383e-06
2.04846e-06
2.08299e-06
2.11738e-06
2.15161e-06
2.18568e-06
2.2196e-06
2.25337e-06
2.287e-06
2.32042e-06
2.35368e-06
2.38675e-06
2.41945e-06
2.45207e-06
2.48414e-06
2.51521e-06
2.54471e-06
2.57255e-06
2.59817e-06
2.62172e-06
2.64364e-06
2.6638e-06
2.6822e-06
2.69873e-06
2.71326e-06
2.72571e-06
2.73575e-06
2.74284e-06
2.74706e-06
2.74904e-06
2.74874e-06
2.74614e-06
2.74119e-06
2.73391e-06
2.72428e-06
2.71235e-06
2.69828e-06
2.68199e-06
2.66354e-06
2.64298e-06
2.62026e-06
2.59554e-06
2.56892e-06
2.54046e-06
2.51018e-06
2.4782e-06
2.44463e-06
2.40954e-06
2.37303e-06
2.33515e-06
2.29601e-06
2.25571e-06
2.21435e-06
2.1719e-06
2.12888e-06
2.08492e-06
2.04037e-06
1.99481e-06
1.94871e-06
1.90203e-06
1.85532e-06
1.80881e-06
1.7627e-06
1.71706e-06
1.67222e-06
1.62828e-06
1.58559e-06
1.54399e-06
1.50411e-06
1.46658e-06
1.43128e-06
1.39997e-06
1.37197e-06
1.34966e-06
1.33454e-06
2.76875e-06
2.77387e-06
2.80655e-06
2.85178e-06
2.91342e-06
2.98338e-06
3.05799e-06
3.13779e-06
3.21969e-06
3.29931e-06
3.37701e-06
3.45526e-06
3.53457e-06
3.61521e-06
3.69671e-06
3.77849e-06
3.86034e-06
3.94111e-06
4.02185e-06
4.10214e-06
4.18212e-06
4.2615e-06
4.3401e-06
4.4177e-06
4.49432e-06
4.56977e-06
4.64399e-06
4.71687e-06
4.78837e-06
4.85845e-06
4.9271e-06
4.99429e-06
5.06012e-06
5.12436e-06
5.18716e-06
5.24854e-06
5.30772e-06
5.36408e-06
5.41804e-06
5.46929e-06
5.51706e-06
5.5607e-06
5.5989e-06
5.63207e-06
5.66124e-06
5.68624e-06
5.70716e-06
5.72385e-06
5.73614e-06
5.74395e-06
5.74687e-06
5.73961e-06
5.71968e-06
5.69538e-06
5.66674e-06
5.63386e-06
5.59682e-06
5.55578e-06
5.51086e-06
5.46228e-06
5.41035e-06
5.35511e-06
5.29679e-06
5.23556e-06
5.17152e-06
5.10498e-06
5.03615e-06
4.96521e-06
4.89224e-06
4.8175e-06
4.74119e-06
4.66343e-06
4.5844e-06
4.50424e-06
4.42311e-06
4.34113e-06
4.25848e-06
4.17483e-06
4.09025e-06
4.00511e-06
3.91994e-06
3.83459e-06
3.74967e-06
3.66534e-06
3.58215e-06
3.5004e-06
3.42037e-06
3.34228e-06
3.26655e-06
3.19345e-06
3.1233e-06
3.05611e-06
2.99285e-06
2.93417e-06
2.88065e-06
2.83433e-06
2.79533e-06
2.76879e-06
2.76011e-06
4.55701e-06
4.58315e-06
4.65354e-06
4.74595e-06
4.86602e-06
4.99974e-06
5.1417e-06
5.29268e-06
5.44754e-06
5.60501e-06
5.76404e-06
5.92372e-06
6.08238e-06
6.23953e-06
6.39643e-06
6.55223e-06
6.7056e-06
6.84511e-06
6.9834e-06
7.11965e-06
7.25399e-06
7.386e-06
7.51537e-06
7.64177e-06
7.76517e-06
7.88534e-06
8.00218e-06
8.11559e-06
8.22553e-06
8.33197e-06
8.43477e-06
8.53397e-06
8.63005e-06
8.72212e-06
8.80961e-06
8.89213e-06
8.97013e-06
9.04338e-06
9.11201e-06
9.17558e-06
9.23315e-06
9.28371e-06
9.31171e-06
9.32523e-06
9.33143e-06
9.331e-06
9.32317e-06
9.30824e-06
9.28657e-06
9.25794e-06
9.22158e-06
9.17761e-06
9.1268e-06
9.06989e-06
9.00711e-06
8.93867e-06
8.86479e-06
8.78579e-06
8.70195e-06
8.61357e-06
8.52107e-06
8.42459e-06
8.32446e-06
8.22097e-06
8.11433e-06
8.00495e-06
7.89309e-06
7.77901e-06
7.66285e-06
7.54492e-06
7.42544e-06
7.30456e-06
7.18251e-06
7.05939e-06
6.93539e-06
6.81007e-06
6.6834e-06
6.55597e-06
6.42804e-06
6.30016e-06
6.17283e-06
6.04602e-06
5.92052e-06
5.79655e-06
5.67473e-06
5.55546e-06
5.4391e-06
5.32597e-06
5.21666e-06
5.11152e-06
5.01097e-06
4.91514e-06
4.82545e-06
4.74299e-06
4.66904e-06
4.60682e-06
4.55768e-06
4.53005e-06
4.53157e-06
6.86448e-06
6.92479e-06
7.05229e-06
7.21364e-06
7.41638e-06
7.63779e-06
7.86906e-06
8.10972e-06
8.35551e-06
8.60468e-06
8.85491e-06
9.10369e-06
9.34337e-06
9.55905e-06
9.77246e-06
9.98122e-06
1.01871e-05
1.03893e-05
1.05883e-05
1.07827e-05
1.09726e-05
1.11575e-05
1.1337e-05
1.15107e-05
1.16787e-05
1.18406e-05
1.19964e-05
1.2146e-05
1.22895e-05
1.24271e-05
1.25583e-05
1.26826e-05
1.27991e-05
1.29087e-05
1.30113e-05
1.31068e-05
1.31953e-05
1.32768e-05
1.33512e-05
1.3418e-05
1.34764e-05
1.35255e-05
1.35533e-05
1.35468e-05
1.35277e-05
1.34948e-05
1.3452e-05
1.33994e-05
1.33387e-05
1.32704e-05
1.3194e-05
1.31107e-05
1.30209e-05
1.2924e-05
1.28204e-05
1.27105e-05
1.25946e-05
1.24732e-05
1.23469e-05
1.2216e-05
1.20808e-05
1.19416e-05
1.17988e-05
1.16527e-05
1.15036e-05
1.1352e-05
1.11982e-05
1.10424e-05
1.08848e-05
1.07257e-05
1.05653e-05
1.04036e-05
1.02407e-05
1.00766e-05
9.91056e-06
9.74345e-06
9.57562e-06
9.40718e-06
9.23781e-06
9.06901e-06
8.90132e-06
8.73468e-06
8.5701e-06
8.40779e-06
8.24847e-06
8.09263e-06
7.9407e-06
7.79309e-06
7.65055e-06
7.51352e-06
7.38252e-06
7.25781e-06
7.14156e-06
7.03554e-06
6.94212e-06
6.86638e-06
6.81123e-06
6.78921e-06
6.81022e-06
9.8318e-06
9.93319e-06
1.01273e-05
1.0369e-05
1.06677e-05
1.09901e-05
1.1316e-05
1.1615e-05
1.19191e-05
1.22246e-05
1.25295e-05
1.28323e-05
1.31307e-05
1.34242e-05
1.3712e-05
1.3992e-05
1.42658e-05
1.45308e-05
1.47875e-05
1.50364e-05
1.52774e-05
1.55102e-05
1.57343e-05
1.59495e-05
1.61557e-05
1.63527e-05
1.65404e-05
1.67187e-05
1.68871e-05
1.70452e-05
1.71938e-05
1.73326e-05
1.74613e-05
1.75807e-05
1.76907e-05
1.77915e-05
1.7883e-05
1.79654e-05
1.80385e-05
1.81018e-05
1.81547e-05
1.81965e-05
1.82272e-05
1.82466e-05
1.82451e-05
1.8187e-05
1.81172e-05
1.80341e-05
1.79371e-05
1.78285e-05
1.77125e-05
1.75894e-05
1.74592e-05
1.73216e-05
1.71772e-05
1.70264e-05
1.68695e-05
1.67074e-05
1.6541e-05
1.63702e-05
1.61954e-05
1.6017e-05
1.58355e-05
1.56512e-05
1.54644e-05
1.52756e-05
1.5085e-05
1.48928e-05
1.4699e-05
1.45038e-05
1.43073e-05
1.41095e-05
1.39099e-05
1.37078e-05
1.35039e-05
1.32992e-05
1.3094e-05
1.2889e-05
1.26843e-05
1.248e-05
1.22768e-05
1.20743e-05
1.18739e-05
1.16756e-05
1.14804e-05
1.12888e-05
1.11013e-05
1.09184e-05
1.07412e-05
1.057e-05
1.04056e-05
1.0248e-05
1.01012e-05
9.96791e-06
9.85202e-06
9.76132e-06
9.70083e-06
9.68923e-06
9.73891e-06
1.3552e-05
1.36643e-05
1.38506e-05
1.41011e-05
1.44198e-05
1.47806e-05
1.51553e-05
1.55478e-05
1.59445e-05
1.63403e-05
1.67327e-05
1.71198e-05
1.74986e-05
1.78683e-05
1.82281e-05
1.85757e-05
1.89127e-05
1.9236e-05
1.95471e-05
1.98456e-05
2.01321e-05
2.04061e-05
2.06674e-05
2.09159e-05
2.11515e-05
2.13744e-05
2.15844e-05
2.17816e-05
2.19658e-05
2.21373e-05
2.22965e-05
2.24434e-05
2.25784e-05
2.27019e-05
2.28141e-05
2.29152e-05
2.30054e-05
2.30846e-05
2.31529e-05
2.32099e-05
2.32551e-05
2.32882e-05
2.3309e-05
2.33177e-05
2.33146e-05
2.33001e-05
2.32737e-05
2.32351e-05
2.31437e-05
2.30156e-05
2.28801e-05
2.27367e-05
2.25856e-05
2.24267e-05
2.22606e-05
2.20878e-05
2.19082e-05
2.17217e-05
2.15282e-05
2.13296e-05
2.11275e-05
2.09223e-05
2.07145e-05
2.05044e-05
2.02923e-05
2.00785e-05
1.98629e-05
1.96456e-05
1.94265e-05
1.92055e-05
1.89825e-05
1.87572e-05
1.85284e-05
1.82966e-05
1.80624e-05
1.78258e-05
1.75869e-05
1.73458e-05
1.71035e-05
1.68601e-05
1.66166e-05
1.63723e-05
1.61288e-05
1.58863e-05
1.56459e-05
1.54082e-05
1.51739e-05
1.49436e-05
1.47188e-05
1.45e-05
1.42884e-05
1.40845e-05
1.38929e-05
1.37177e-05
1.35646e-05
1.34446e-05
1.33647e-05
1.33519e-05
1.34234e-05
1.7628e-05
1.7711e-05
1.79471e-05
1.82662e-05
1.86679e-05
1.91205e-05
1.95888e-05
2.0076e-05
2.05653e-05
2.10503e-05
2.15279e-05
2.19959e-05
2.2451e-05
2.28919e-05
2.33181e-05
2.37271e-05
2.41206e-05
2.44952e-05
2.48531e-05
2.51937e-05
2.5518e-05
2.58257e-05
2.61169e-05
2.63914e-05
2.66497e-05
2.68918e-05
2.71181e-05
2.73287e-05
2.75239e-05
2.77042e-05
2.78702e-05
2.80221e-05
2.81606e-05
2.8286e-05
2.8399e-05
2.84996e-05
2.85882e-05
2.86649e-05
2.87298e-05
2.87827e-05
2.88232e-05
2.88514e-05
2.8867e-05
2.88703e-05
2.88616e-05
2.88412e-05
2.88088e-05
2.87648e-05
2.87095e-05
2.86432e-05
2.85657e-05
2.84773e-05
2.83782e-05
2.82685e-05
2.81484e-05
2.8018e-05
2.78773e-05
2.77048e-05
2.75117e-05
2.73121e-05
2.71082e-05
2.69005e-05
2.66894e-05
2.64751e-05
2.62576e-05
2.60371e-05
2.58134e-05
2.55861e-05
2.53549e-05
2.51194e-05
2.48793e-05
2.4633e-05
2.43807e-05
2.41231e-05
2.386e-05
2.35913e-05
2.33158e-05
2.30243e-05
2.27158e-05
2.2403e-05
2.20877e-05
2.17687e-05
2.14485e-05
2.11273e-05
2.08066e-05
2.04878e-05
2.01719e-05
1.98597e-05
1.95533e-05
1.92537e-05
1.89631e-05
1.86813e-05
1.84126e-05
1.81634e-05
1.7936e-05
1.77457e-05
1.75934e-05
1.75059e-05
1.75039e-05
2.2299e-05
2.23936e-05
2.2675e-05
2.30609e-05
2.35434e-05
2.40857e-05
2.46454e-05
2.52245e-05
2.58029e-05
2.63727e-05
2.69306e-05
2.7474e-05
2.79991e-05
2.8505e-05
2.89909e-05
2.94543e-05
2.98973e-05
3.03164e-05
3.07144e-05
3.10906e-05
3.14465e-05
3.17823e-05
3.2098e-05
3.23938e-05
3.26705e-05
3.29284e-05
3.31681e-05
3.33899e-05
3.35948e-05
3.37832e-05
3.3956e-05
3.41137e-05
3.42571e-05
3.43869e-05
3.45036e-05
3.46077e-05
3.46994e-05
3.47792e-05
3.48471e-05
3.49034e-05
3.49477e-05
3.49801e-05
3.50006e-05
3.50095e-05
3.50071e-05
3.49936e-05
3.49689e-05
3.49334e-05
3.48871e-05
3.48303e-05
3.47628e-05
3.46848e-05
3.45965e-05
3.44977e-05
3.43886e-05
3.42692e-05
3.41393e-05
3.39994e-05
3.38495e-05
3.36893e-05
3.35191e-05
3.33389e-05
3.31488e-05
3.2949e-05
3.27394e-05
3.25202e-05
3.22912e-05
3.20526e-05
3.18041e-05
3.15454e-05
3.1276e-05
3.09867e-05
3.06834e-05
3.03686e-05
3.00435e-05
2.97087e-05
2.9365e-05
2.90127e-05
2.86527e-05
2.82847e-05
2.79109e-05
2.75298e-05
2.71445e-05
2.67553e-05
2.63641e-05
2.59727e-05
2.55824e-05
2.51943e-05
2.48111e-05
2.44342e-05
2.40663e-05
2.37074e-05
2.33629e-05
2.3041e-05
2.27451e-05
2.24945e-05
2.22913e-05
2.21693e-05
2.21554e-05
2.76625e-05
2.77567e-05
2.8076e-05
2.85231e-05
2.90807e-05
2.97073e-05
3.03534e-05
3.10191e-05
3.16811e-05
3.23298e-05
3.29619e-05
3.35744e-05
3.41635e-05
3.4728e-05
3.52676e-05
3.57797e-05
3.62668e-05
3.67253e-05
3.71587e-05
3.75665e-05
3.79506e-05
3.83116e-05
3.86498e-05
3.89656e-05
3.92601e-05
3.9534e-05
3.97881e-05
4.00232e-05
4.02404e-05
4.04405e-05
4.06245e-05
4.07933e-05
4.09478e-05
4.10889e-05
4.12173e-05
4.13335e-05
4.14381e-05
4.15317e-05
4.16145e-05
4.16867e-05
4.17484e-05
4.17996e-05
4.18405e-05
4.18714e-05
4.18925e-05
4.1904e-05
4.19059e-05
4.18984e-05
4.18814e-05
4.1855e-05
4.18191e-05
4.17734e-05
4.17182e-05
4.16529e-05
4.15774e-05
4.14916e-05
4.13949e-05
4.12874e-05
4.11686e-05
4.1038e-05
4.08955e-05
4.07407e-05
4.05733e-05
4.0393e-05
4.01994e-05
3.99921e-05
3.97708e-05
3.95348e-05
3.92837e-05
3.90171e-05
3.87273e-05
3.84128e-05
3.80801e-05
3.77304e-05
3.73646e-05
3.69834e-05
3.65874e-05
3.61769e-05
3.57529e-05
3.53152e-05
3.48666e-05
3.44054e-05
3.39354e-05
3.34571e-05
3.2973e-05
3.24854e-05
3.19961e-05
3.15066e-05
3.10206e-05
3.05396e-05
3.00673e-05
2.96038e-05
2.91561e-05
2.87346e-05
2.8344e-05
2.80082e-05
2.77312e-05
2.75544e-05
2.75115e-05
3.37621e-05
3.38418e-05
3.41879e-05
3.4688e-05
3.53126e-05
3.60162e-05
3.6742e-05
3.7488e-05
3.82274e-05
3.89493e-05
3.96499e-05
4.03261e-05
4.09741e-05
4.15928e-05
4.2182e-05
4.27391e-05
4.32674e-05
4.37631e-05
4.42304e-05
4.4669e-05
4.50814e-05
4.54684e-05
4.58308e-05
4.61692e-05
4.64851e-05
4.67793e-05
4.70532e-05
4.73078e-05
4.75444e-05
4.77642e-05
4.79684e-05
4.81581e-05
4.83345e-05
4.84985e-05
4.86512e-05
4.87933e-05
4.89254e-05
4.90483e-05
4.91625e-05
4.92683e-05
4.93659e-05
4.94554e-05
4.9537e-05
4.96111e-05
4.96777e-05
4.9737e-05
4.9789e-05
4.98337e-05
4.98707e-05
4.99001e-05
4.99214e-05
4.99341e-05
4.99381e-05
4.99325e-05
4.99167e-05
4.98903e-05
4.98522e-05
4.98019e-05
4.97384e-05
4.96606e-05
4.95678e-05
4.94591e-05
4.93334e-05
4.919e-05
4.90278e-05
4.88457e-05
4.86429e-05
4.84181e-05
4.81702e-05
4.78977e-05
4.75868e-05
4.72467e-05
4.68807e-05
4.64896e-05
4.60739e-05
4.56345e-05
4.51721e-05
4.46868e-05
4.41802e-05
4.36521e-05
4.31061e-05
4.25405e-05
4.19595e-05
4.13645e-05
4.07585e-05
4.01445e-05
3.95251e-05
3.89023e-05
3.82807e-05
3.76627e-05
3.70527e-05
3.64514e-05
3.58675e-05
3.5314e-05
3.47976e-05
3.4347e-05
3.39687e-05
3.37123e-05
3.36194e-05
4.06368e-05
4.06861e-05
4.10463e-05
4.15894e-05
4.22718e-05
4.30443e-05
4.3843e-05
4.46632e-05
4.54747e-05
4.62649e-05
4.70298e-05
4.77662e-05
4.84703e-05
4.9141e-05
4.97784e-05
5.03801e-05
5.09498e-05
5.1484e-05
5.19871e-05
5.24594e-05
5.2904e-05
5.33219e-05
5.37142e-05
5.40819e-05
5.44268e-05
5.475e-05
5.50533e-05
5.53377e-05
5.56052e-05
5.58571e-05
5.60947e-05
5.63195e-05
5.65329e-05
5.6736e-05
5.693e-05
5.71159e-05
5.72945e-05
5.74667e-05
5.76332e-05
5.77944e-05
5.79505e-05
5.81019e-05
5.82487e-05
5.8391e-05
5.8529e-05
5.86627e-05
5.87919e-05
5.89163e-05
5.90355e-05
5.9149e-05
5.92561e-05
5.93558e-05
5.94474e-05
5.95297e-05
5.96016e-05
5.96618e-05
5.97088e-05
5.97413e-05
5.97574e-05
5.97555e-05
5.97339e-05
5.9691e-05
5.96248e-05
5.95339e-05
5.94162e-05
5.92701e-05
5.90937e-05
5.88854e-05
5.86431e-05
5.83591e-05
5.80264e-05
5.76551e-05
5.72474e-05
5.68034e-05
5.63237e-05
5.58092e-05
5.5261e-05
5.46792e-05
5.4066e-05
5.34215e-05
5.275e-05
5.205e-05
5.13267e-05
5.0582e-05
4.98199e-05
4.90441e-05
4.82583e-05
4.74653e-05
4.66708e-05
4.58781e-05
4.50927e-05
4.4316e-05
4.35589e-05
4.28371e-05
4.21598e-05
4.15612e-05
4.10508e-05
4.06871e-05
4.05206e-05
4.8322e-05
4.83244e-05
4.86845e-05
4.92601e-05
4.99912e-05
5.0825e-05
5.16908e-05
5.25804e-05
5.34602e-05
5.43158e-05
5.51432e-05
5.59387e-05
5.66989e-05
5.74225e-05
5.811e-05
5.87591e-05
5.9374e-05
5.99512e-05
6.0496e-05
6.10089e-05
6.14933e-05
6.19507e-05
6.23827e-05
6.27903e-05
6.31759e-05
6.35407e-05
6.38868e-05
6.42156e-05
6.45293e-05
6.48294e-05
6.51177e-05
6.53957e-05
6.5665e-05
6.5927e-05
6.61831e-05
6.64345e-05
6.66822e-05
6.69272e-05
6.71702e-05
6.74119e-05
6.76525e-05
6.78923e-05
6.81313e-05
6.83698e-05
6.86076e-05
6.88445e-05
6.90801e-05
6.93139e-05
6.95448e-05
6.97721e-05
6.99946e-05
7.02107e-05
7.0419e-05
7.06177e-05
7.08049e-05
7.09785e-05
7.11362e-05
7.12757e-05
7.13943e-05
7.14894e-05
7.15582e-05
7.1598e-05
7.16061e-05
7.15798e-05
7.15163e-05
7.1413e-05
7.12671e-05
7.10764e-05
7.0839e-05
7.05346e-05
7.01739e-05
6.97618e-05
6.92994e-05
6.87867e-05
6.82245e-05
6.76139e-05
6.69562e-05
6.62521e-05
6.55043e-05
6.47133e-05
6.38845e-05
6.30165e-05
6.21157e-05
6.11847e-05
6.02288e-05
5.92526e-05
5.82609e-05
5.72575e-05
5.62498e-05
5.52418e-05
5.42406e-05
5.32485e-05
5.22785e-05
5.13498e-05
5.04746e-05
4.96927e-05
4.90177e-05
4.85172e-05
4.82519e-05
5.68509e-05
5.67895e-05
5.71356e-05
5.77335e-05
5.85051e-05
5.93939e-05
6.03225e-05
6.12785e-05
6.2225e-05
6.31456e-05
6.40362e-05
6.48927e-05
6.57119e-05
6.64924e-05
6.72351e-05
6.79378e-05
6.86052e-05
6.92339e-05
6.98297e-05
7.03934e-05
7.0929e-05
7.14384e-05
7.19233e-05
7.23851e-05
7.28265e-05
7.3249e-05
7.36549e-05
7.4046e-05
7.44247e-05
7.47927e-05
7.5152e-05
7.55043e-05
7.58516e-05
7.61954e-05
7.65372e-05
7.68785e-05
7.72203e-05
7.75639e-05
7.791e-05
7.82593e-05
7.8612e-05
7.89685e-05
7.93285e-05
7.96922e-05
8.00591e-05
8.04288e-05
8.08004e-05
8.11732e-05
8.15454e-05
8.19159e-05
8.22826e-05
8.26434e-05
8.29961e-05
8.33378e-05
8.36659e-05
8.39774e-05
8.42688e-05
8.45367e-05
8.47774e-05
8.4987e-05
8.51616e-05
8.52974e-05
8.53905e-05
8.5437e-05
8.54331e-05
8.53752e-05
8.52595e-05
8.50825e-05
8.48394e-05
8.45101e-05
8.41111e-05
8.36447e-05
8.31114e-05
8.25111e-05
8.18447e-05
8.1114e-05
8.03207e-05
7.94659e-05
7.8553e-05
7.75833e-05
7.65631e-05
7.54916e-05
7.43764e-05
7.3221e-05
7.20318e-05
7.08151e-05
6.95765e-05
6.83215e-05
6.70588e-05
6.5794e-05
6.45354e-05
6.32869e-05
6.20636e-05
6.08886e-05
5.97775e-05
5.87764e-05
5.79036e-05
5.72362e-05
5.68467e-05
6.62547e-05
6.61125e-05
6.64314e-05
6.70424e-05
6.7848e-05
6.87875e-05
6.97766e-05
7.07984e-05
7.18124e-05
7.28004e-05
7.37576e-05
7.468e-05
7.55641e-05
7.64087e-05
7.72149e-05
7.79807e-05
7.87111e-05
7.94028e-05
8.00622e-05
8.06903e-05
8.12916e-05
8.18684e-05
8.24226e-05
8.2956e-05
8.34714e-05
8.39706e-05
8.44562e-05
8.49301e-05
8.5395e-05
8.58529e-05
8.6306e-05
8.67562e-05
8.72056e-05
8.76559e-05
8.81088e-05
8.85659e-05
8.90284e-05
8.94975e-05
8.99741e-05
9.04589e-05
9.09519e-05
9.14535e-05
9.19632e-05
9.24808e-05
9.30056e-05
9.35368e-05
9.40729e-05
9.46128e-05
9.51542e-05
9.5695e-05
9.62325e-05
9.67636e-05
9.72852e-05
9.77936e-05
9.82849e-05
9.87549e-05
9.9199e-05
9.96127e-05
9.99908e-05
0.000100328
0.00010062
0.000100861
0.000101045
0.000101168
0.000101225
0.000101211
0.000101122
0.000100954
0.000100691
0.000100328
9.98776e-05
9.93408e-05
9.87181e-05
9.80093e-05
9.72157e-05
9.63395e-05
9.53831e-05
9.43481e-05
9.3239e-05
9.20579e-05
9.08119e-05
8.95012e-05
8.81345e-05
8.67165e-05
8.52549e-05
8.37573e-05
8.22312e-05
8.06835e-05
7.91246e-05
7.75617e-05
7.60046e-05
7.44588e-05
7.29422e-05
7.14818e-05
7.00974e-05
6.88414e-05
6.77382e-05
6.68744e-05
6.63354e-05
7.65628e-05
7.63229e-05
7.6603e-05
7.72194e-05
7.80547e-05
7.90427e-05
8.00924e-05
8.11817e-05
8.22666e-05
8.33268e-05
8.4357e-05
8.53527e-05
8.63105e-05
8.72292e-05
8.81101e-05
8.89512e-05
8.97579e-05
9.0527e-05
9.12652e-05
9.19741e-05
9.26582e-05
9.33204e-05
9.39628e-05
9.45873e-05
9.51971e-05
9.57941e-05
9.63811e-05
9.69603e-05
9.75345e-05
9.8106e-05
9.8677e-05
9.92497e-05
9.98264e-05
0.000100409
0.000100999
0.000101598
0.000102208
0.000102829
0.000103464
0.000104111
0.000104772
0.000105446
0.000106132
0.000106831
0.000107541
0.00010826
0.000108986
0.000109719
0.000110454
0.000111189
0.00011192
0.000112643
0.000113355
0.000114049
0.000114722
0.000115367
0.000115978
0.00011655
0.000117077
0.000117551
0.000117966
0.000118316
0.000118594
0.000118794
0.00011891
0.000118936
0.000118867
0.000118698
0.000118403
0.000117994
0.000117477
0.000116853
0.000116121
0.000115283
0.000114338
0.000113291
0.000112145
0.000110901
0.000109565
0.00010814
0.000106635
0.000105051
0.000103396
0.000101679
9.99071e-05
9.80901e-05
9.62371e-05
9.4357e-05
9.24621e-05
9.05611e-05
8.86659e-05
8.67836e-05
8.49351e-05
8.31516e-05
8.14578e-05
7.99127e-05
7.85474e-05
7.74589e-05
7.67466e-05
8.78026e-05
8.74485e-05
8.76802e-05
8.8296e-05
8.9159e-05
9.01956e-05
9.13082e-05
9.24692e-05
9.36307e-05
9.47704e-05
9.58822e-05
9.69612e-05
9.80039e-05
9.90092e-05
9.99783e-05
0.000100909
0.000101808
0.000102671
0.000103505
0.000104313
0.000105099
0.000105867
0.000106618
0.000107354
0.00010808
0.000108798
0.000109509
0.000110217
0.000110924
0.000111633
0.000112347
0.000113067
0.000113796
0.000114536
0.000115289
0.000116056
0.000116838
0.000117638
0.000118456
0.000119292
0.000120145
0.000121017
0.000121905
0.000122809
0.000123727
0.000124657
0.000125597
0.000126544
0.000127493
0.000128442
0.000129386
0.000130319
0.000131237
0.000132132
0.000132999
0.00013383
0.000134619
0.000135359
0.00013604
0.000136656
0.000137198
0.000137658
0.000138028
0.000138302
0.000138472
0.00013853
0.000138471
0.000138288
0.000137953
0.000137484
0.000136886
0.000136157
0.000135298
0.000134308
0.00013319
0.000131948
0.000130585
0.000129105
0.000127514
0.000125815
0.00012402
0.000122129
0.000120154
0.000118103
0.000115985
0.000113812
0.000111595
0.000109346
0.000107077
0.000104801
0.00010253
0.000100274
9.80572e-05
9.59149e-05
9.38776e-05
9.20108e-05
9.03539e-05
8.9014e-05
8.8106e-05
9.99991e-05
9.95151e-05
9.96906e-05
0.000100302
0.000101193
0.00010228
0.00010346
0.000104699
0.000105945
0.000107174
0.000108378
0.000109552
0.000110693
0.000111799
0.000112872
0.000113909
0.000114917
0.000115892
0.000116841
0.000117767
0.000118676
0.000119569
0.00012045
0.000121321
0.000122185
0.000123046
0.000123904
0.000124764
0.000125628
0.000126499
0.000127379
0.000128271
0.000129177
0.000130098
0.000131038
0.000131997
0.000132976
0.000133978
0.000135002
0.000136049
0.000137118
0.000138209
0.000139321
0.000140451
0.000141598
0.000142758
0.00014393
0.000145108
0.00014629
0.000147468
0.000148639
0.000149795
0.00015093
0.000152037
0.000153107
0.000154133
0.000155105
0.000156016
0.000156855
0.000157613
0.000158281
0.00015885
0.000159309
0.000159651
0.000159868
0.00015995
0.000159892
0.000159681
0.000159295
0.000158755
0.00015806
0.000157209
0.000156204
0.000155044
0.000153732
0.000152272
0.000150669
0.000148927
0.000147054
0.000145055
0.000142941
0.000140715
0.000138388
0.000135971
0.000133475
0.000130913
0.000128299
0.000125645
0.000122969
0.000120282
0.000117601
0.000114938
0.000112318
0.000109784
0.000107372
0.000105153
0.000103177
0.000101561
0.000100437
0.000113175
0.000112546
0.00011266
0.000113265
0.000114185
0.000115328
0.000116582
0.000117906
0.000119247
0.000120575
0.000121884
0.000123167
0.00012442
0.000125643
0.000126835
0.000127996
0.000129131
0.000130237
0.000131321
0.000132386
0.000133437
0.000134477
0.00013551
0.000136537
0.000137562
0.000138587
0.000139616
0.000140651
0.000141694
0.00014275
0.000143819
0.000144905
0.000146009
0.000147135
0.000148283
0.000149456
0.000150654
0.000151878
0.000153129
0.000154407
0.000155712
0.000157041
0.000158393
0.000159767
0.000161158
0.000162565
0.000163983
0.000165407
0.000166831
0.000168251
0.000169659
0.000171046
0.000172407
0.000173731
0.00017501
0.000176234
0.000177392
0.000178475
0.000179472
0.000180371
0.000181162
0.000181834
0.000182377
0.000182781
0.000183036
0.000183135
0.000183069
0.000182815
0.000182369
0.000181743
0.000180938
0.000179951
0.000178783
0.000177435
0.000175909
0.000174212
0.000172348
0.000170323
0.000168146
0.000165822
0.000163363
0.000160775
0.00015807
0.00015526
0.000152356
0.000149376
0.000146334
0.000143245
0.000140129
0.000137001
0.000133879
0.000130777
0.000127724
0.000124768
0.000121951
0.000119354
0.000117033
0.000115119
0.00011376
0.000127348
0.000126563
0.00012661
0.00012721
0.000128163
0.000129366
0.000130701
0.000132121
0.000133566
0.000135007
0.000136433
0.000137839
0.000139221
0.000140576
0.000141906
0.000143209
0.000144489
0.000145745
0.000146984
0.000148207
0.000149421
0.000150628
0.000151833
0.000153037
0.000154244
0.000155456
0.000156676
0.000157907
0.000159151
0.000160412
0.000161691
0.000162991
0.000164315
0.000165664
0.000167041
0.000168445
0.00016988
0.000171345
0.00017284
0.000174366
0.000175921
0.000177503
0.000179111
0.000180741
0.00018239
0.000184054
0.000185728
0.000187407
0.000189084
0.000190752
0.000192402
0.000194027
0.000195617
0.000197161
0.00019865
0.000200072
0.000201416
0.00020267
0.00020382
0.000204857
0.000205766
0.000206536
0.000207156
0.000207614
0.0002079
0.000208006
0.000207923
0.000207616
0.000207099
0.000206376
0.000205448
0.00020431
0.000202966
0.000201414
0.00019966
0.000197709
0.000195566
0.000193239
0.000190737
0.000188068
0.000185244
0.000182272
0.000179166
0.000175937
0.000172602
0.000169177
0.00016568
0.000162129
0.000158547
0.000154949
0.000151358
0.000147789
0.000144276
0.00014087
0.000137623
0.000134622
0.000131935
0.000129702
0.000128093
0.000142534
0.000141582
0.000141561
0.000142155
0.000143147
0.000144418
0.000145843
0.000147368
0.000148929
0.000150495
0.000152053
0.000153597
0.000155122
0.000156627
0.000158111
0.000159573
0.000161018
0.000162442
0.000163853
0.000165254
0.00016665
0.000168045
0.000169441
0.000170842
0.000172251
0.000173669
0.000175099
0.000176545
0.000178009
0.000179493
0.000181001
0.000182534
0.000184095
0.000185684
0.000187305
0.000188958
0.000190644
0.000192364
0.000194118
0.000195904
0.000197722
0.000199568
0.000201442
0.000203338
0.000205253
0.000207182
0.00020912
0.000211059
0.000212993
0.000214912
0.000216809
0.000218672
0.000220491
0.000222256
0.000223954
0.000225572
0.000227097
0.000228517
0.000229818
0.000230986
0.000232007
0.000232868
0.000233557
0.000234061
0.00023437
0.000234473
0.000234361
0.000233996
0.000233399
0.00023257
0.000231508
0.000230209
0.000228676
0.000226909
0.000224913
0.000222693
0.000220258
0.000217614
0.000214771
0.000211741
0.000208534
0.00020516
0.000201633
0.000197966
0.000194178
0.000190286
0.000186312
0.000182276
0.000178203
0.000174113
0.000170027
0.000165967
0.000161969
0.000158091
0.000154391
0.000150964
0.00014789
0.000145322
0.000143448
0.000158744
0.000157617
0.000157526
0.000158118
0.000159153
0.000160499
0.000162023
0.000163664
0.000165354
0.000167057
0.000168761
0.000170458
0.000172142
0.000173812
0.000175467
0.000177106
0.000178731
0.000180342
0.000181944
0.000183541
0.000185137
0.000186736
0.000188342
0.000189958
0.000191585
0.000193226
0.000194885
0.000196562
0.000198262
0.000199987
0.000201739
0.000203519
0.000205331
0.000207175
0.000209054
0.000210967
0.000212917
0.000214903
0.000216925
0.000218981
0.00022107
0.00022319
0.000225335
0.000227504
0.00022969
0.000231889
0.000234093
0.000236295
0.000238486
0.000240658
0.0002428
0.0002449
0.000246947
0.000248929
0.000250831
0.000252641
0.000254344
0.000255924
0.000257368
0.000258661
0.000259787
0.000260732
0.000261483
0.000262026
0.000262348
0.00026244
0.00026229
0.000261862
0.000261177
0.000260234
0.000259029
0.000257561
0.00025583
0.000253838
0.00025159
0.000249092
0.000246353
0.00024338
0.000240186
0.000236781
0.000233178
0.000229388
0.000225425
0.000221305
0.000217046
0.000212671
0.0002082
0.00020366
0.000199077
0.000194473
0.000189873