/*--------------------------------*- C++ -*----------------------------------*\
  =========                 |
  \\      /  F ield         | OpenFOAM: The Open Source CFD Toolbox
   \\    /   O peration     | Website:  https://openfoam.org
    \\  /    A nd           | Version:  9
     \\/     M anipulation  |
\*---------------------------------------------------------------------------*/
FoamFile
{
    format      ascii;
    class       volScalarField;
    location    "3000";
    object      omega;
}
// * * * * * * * * * * * * * * * * * * * * * * * * * * * * * * * * * * * * * //

dimensions      [0 0 -1 0 0 0 0];

internalField   nonuniform List<scalar> 
14751
(
100.009
100.012
100.003
99.995
99.9892
99.9845
99.9793
99.9765
99.9764
99.9765
99.9766
99.9845
100.001
100.015
100.025
100.033
100.038
100.042
100.047
100.046
100.041
100.035
100.028
100.016
99.9968
99.9802
99.9675
99.9601
99.9578
99.9556
99.9534
99.9513
99.9492
99.9471
99.9451
99.9473
99.9538
99.9604
99.9673
99.9805
100.002
100.02
100.035
100.043
100.046
100.048
100.05
100.052
100.054
100.056
100.058
100.058
100.056
100.054
100.052
100.05
100.048
100.046
100.043
100.035
100.021
100.002
99.9812
99.9681
99.9613
99.9547
99.9483
99.9454
99.9459
99.9464
99.9469
99.9474
99.9479
99.9484
99.9489
99.9496
99.9502
99.9509
99.9515
99.9522
99.9528
99.9534
99.9539
99.9562
99.9603
99.9645
99.9687
99.9756
99.9854
99.9982
100.013
100.019
100.018
100.017
100.016
100.015
100.012
100.008
100.003
16.9726
16.9692
16.9469
16.9139
16.8712
16.824
16.7744
16.723
16.6713
16.6194
16.5676
16.5172
16.4687
16.4208
16.3737
16.3276
16.2827
16.2395
16.198
16.1577
16.1184
16.081
16.0455
16.0112
15.978
15.947
15.9183
15.8921
15.8682
15.8461
15.8257
15.8068
15.7894
15.7735
15.759
15.7464
15.7355
15.7259
15.7174
15.7107
15.706
15.702
15.6984
15.695
15.6917
15.6891
15.6875
15.6868
15.6869
15.6877
15.6894
15.6915
15.6942
15.6977
15.702
15.7072
15.7132
15.72
15.7278
15.7358
15.744
15.7528
15.7624
15.774
15.7876
15.8024
15.8186
15.8365
15.8563
15.8775
15.9003
15.9246
15.9506
15.9782
16.0074
16.0384
16.0712
16.1057
16.1419
16.1799
16.2196
16.261
16.3039
16.3485
16.3947
16.4421
16.4905
16.54
16.5905
16.6416
16.6929
16.7428
16.7905
16.836
16.8784
16.9155
16.9456
16.9655
16.9742
5.88995
5.88443
5.8643
5.83619
5.80077
5.76194
5.72089
5.67823
5.63506
5.5917
5.5485
5.50594
5.46436
5.42364
5.38397
5.3455
5.30832
5.2727
5.2386
5.20598
5.17481
5.14529
5.11743
5.09111
5.06627
5.04312
5.02167
5.0019
4.98378
4.96712
4.95187
4.93796
4.92534
4.91397
4.90378
4.89483
4.88708
4.88034
4.87457
4.86985
4.86615
4.86323
4.86097
4.85924
4.85821
4.85808
4.85868
4.85998
4.86196
4.86458
4.86785
4.87173
4.8762
4.88133
4.88713
4.89359
4.90074
4.90858
4.91712
4.92626
4.93596
4.94637
4.95752
4.96964
4.9828
4.99686
5.01185
5.02786
5.04498
5.06312
5.08232
5.10262
5.12402
5.14657
5.17028
5.19517
5.22126
5.24856
5.27706
5.3068
5.33766
5.36975
5.40286
5.43703
5.47213
5.508
5.5445
5.58155
5.61894
5.65642
5.69366
5.73016
5.76524
5.79832
5.82901
5.85519
5.87633
5.89022
5.8954
3.07575
3.06782
3.0492
3.02555
2.99619
2.96424
2.93157
2.89797
2.86406
2.83009
2.79643
2.76333
2.73107
2.69972
2.66941
2.64028
2.61234
2.58577
2.56052
2.53663
2.51405
2.49285
2.47302
2.45454
2.43735
2.4215
2.40696
2.39369
2.38167
2.37081
2.36107
2.3524
2.34476
2.33811
2.3324
2.32761
2.32372
2.32062
2.31831
2.31676
2.31589
2.31568
2.31614
2.3173
2.31903
2.32136
2.32426
2.3277
2.33167
2.33615
2.34116
2.34666
2.35263
2.35908
2.36602
2.37342
2.38131
2.38966
2.39848
2.40776
2.41747
2.42765
2.43832
2.44952
2.4613
2.47362
2.48649
2.49993
2.51399
2.52864
2.54391
2.55979
2.57631
2.59348
2.6113
2.62978
2.64892
2.66873
2.68918
2.71031
2.73203
2.75443
2.77731
2.80062
2.82435
2.84838
2.87258
2.89688
2.9211
2.94508
2.96855
2.99153
3.01337
3.03359
3.05177
3.06674
3.07812
3.0843
3.08433
1.99833
1.98858
1.97057
1.94902
1.92311
1.89539
1.86729
1.83872
1.81062
1.78318
1.75629
1.73003
1.7047
1.68032
1.65704
1.63493
1.61397
1.59427
1.57576
1.55847
1.54233
1.52735
1.51353
1.50084
1.48922
1.47867
1.46914
1.46062
1.45306
1.44641
1.44063
1.43567
1.43151
1.4281
1.42541
1.42341
1.42208
1.42134
1.42123
1.42177
1.42299
1.42476
1.42705
1.42982
1.43303
1.43667
1.44073
1.4452
1.45008
1.45536
1.46106
1.46721
1.47374
1.48061
1.48782
1.49534
1.50318
1.51133
1.51977
1.52851
1.53753
1.54684
1.55644
1.56635
1.5766
1.58715
1.59803
1.60922
1.62077
1.63266
1.64489
1.65748
1.67042
1.68373
1.6974
1.71142
1.7258
1.74053
1.75554
1.77089
1.78652
1.80253
1.8188
1.83537
1.85205
1.86874
1.88536
1.90182
1.91798
1.93371
1.94886
1.96334
1.97677
1.98879
1.99912
2.00692
2.01199
2.01293
2.00895
1.42841
1.41801
1.40088
1.38105
1.35787
1.33346
1.30905
1.2846
1.26083
1.23792
1.21599
1.19514
1.17528
1.15636
1.13852
1.12181
1.10621
1.09179
1.07841
1.06609
1.05475
1.04439
1.03498
1.02649
1.01887
1.01209
1.00612
1.00092
0.996454
0.992687
0.989582
0.987103
0.985213
0.983895
0.983106
0.982818
0.983068
0.983885
0.9852
0.987002
0.989306
0.992074
0.9953
0.998912
1.00285
1.00709
1.01166
1.01651
1.02165
1.02708
1.03282
1.03887
1.04518
1.05171
1.05846
1.0654
1.07253
1.07985
1.08733
1.09499
1.10279
1.11077
1.1189
1.1272
1.13568
1.14433
1.15314
1.16214
1.17132
1.1807
1.19026
1.20003
1.20998
1.22014
1.23048
1.241
1.25166
1.26257
1.27377
1.28522
1.29682
1.3086
1.32048
1.33243
1.34436
1.35619
1.36785
1.37927
1.39035
1.40098
1.41104
1.42047
1.42899
1.43631
1.44222
1.44604
1.44761
1.44569
1.43965
1.06387
1.05407
1.03871
1.02123
1.00121
0.980426
0.959953
0.939722
0.920294
0.901788
0.884302
0.867884
0.852608
0.83849
0.825357
0.813161
0.801926
0.791663
0.782276
0.773764
0.766063
0.759152
0.752996
0.747567
0.74282
0.738728
0.735255
0.73237
0.730039
0.728231
0.726921
0.726079
0.725656
0.725669
0.726125
0.727019
0.728307
0.72998
0.732013
0.734404
0.737164
0.740289
0.743783
0.747608
0.751685
0.756
0.760537
0.765273
0.770194
0.775293
0.780573
0.78601
0.791574
0.797263
0.803064
0.808964
0.814953
0.82102
0.827159
0.833366
0.83963
0.845958
0.852349
0.858803
0.865328
0.87192
0.878583
0.885321
0.892148
0.899064
0.906073
0.913178
0.920376
0.927659
0.934999
0.942512
0.950254
0.958157
0.966214
0.974411
0.982686
0.991072
0.99949
1.00793
1.01631
1.0246
1.03274
1.04067
1.04831
1.05559
1.06241
1.06872
1.07431
1.07893
1.08242
1.08415
1.08403
1.08102
1.07462
0.809698
0.80143
0.78861
0.774132
0.757734
0.740867
0.7245
0.708559
0.693411
0.679151
0.665834
0.653472
0.642102
0.631682
0.622145
0.613526
0.605687
0.598593
0.59219
0.586485
0.581425
0.576984
0.573131
0.569838
0.567069
0.5648
0.562999
0.561642
0.560695
0.560128
0.559936
0.560108
0.560653
0.561523
0.562705
0.564185
0.565944
0.567969
0.570247
0.572775
0.575555
0.578581
0.581836
0.585309
0.588982
0.59286
0.596884
0.601038
0.605305
0.609665
0.614104
0.618603
0.623149
0.627742
0.632367
0.637015
0.641677
0.646342
0.651004
0.65566
0.660304
0.664939
0.669566
0.674185
0.678804
0.683422
0.688045
0.69268
0.697338
0.702023
0.706739
0.71149
0.71627
0.721066
0.726061
0.731186
0.736435
0.741796
0.747259
0.75283
0.758466
0.764199
0.769969
0.775771
0.78156
0.787298
0.792946
0.798477
0.803816
0.808919
0.813699
0.818131
0.822036
0.825189
0.827469
0.828332
0.827716
0.824761
0.81906
0.627125
0.620832
0.610901
0.59962
0.586867
0.57377
0.561148
0.548905
0.537375
0.526628
0.51669
0.507546
0.499203
0.491613
0.484755
0.478623
0.473124
0.468268
0.464006
0.460284
0.457063
0.454318
0.452022
0.450152
0.448679
0.447582
0.446838
0.44643
0.446345
0.44657
0.447075
0.447847
0.448875
0.450135
0.451611
0.453292
0.455164
0.457214
0.459434
0.461816
0.464353
0.467033
0.469836
0.472751
0.475783
0.478919
0.482135
0.485422
0.488782
0.492189
0.495607
0.499027
0.50244
0.505841
0.509222
0.512573
0.515889
0.519163
0.522393
0.525574
0.528701
0.531776
0.534802
0.53778
0.540719
0.543623
0.546499
0.549356
0.552205
0.555054
0.557907
0.560768
0.563631
0.56667
0.569824
0.573075
0.576426
0.579882
0.583436
0.587103
0.59085
0.594713
0.598646
0.602648
0.606689
0.610743
0.614783
0.618791
0.622707
0.626502
0.630104
0.633496
0.636536
0.63903
0.640882
0.641637
0.641258
0.639028
0.634587
0.495083
0.490602
0.483143
0.474553
0.464817
0.454796
0.445157
0.435817
0.427085
0.419015
0.411612
0.404859
0.398755
0.393264
0.388363
0.384038
0.380222
0.376924
0.374086
0.371682
0.369673
0.368037
0.366751
0.365796
0.365148
0.36479
0.364701
0.364867
0.365272
0.365901
0.366735
0.36776
0.368961
0.370322
0.371831
0.373476
0.375246
0.377128
0.379114
0.381193
0.383355
0.385587
0.387875
0.390211
0.392587
0.394977
0.39739
0.399816
0.402247
0.404664
0.407051
0.409402
0.41171
0.41397
0.416176
0.418322
0.42041
0.422438
0.424411
0.426318
0.428155
0.429925
0.431632
0.433282
0.434882
0.436441
0.437969
0.439475
0.440971
0.442467
0.44397
0.445484
0.447128
0.448897
0.450764
0.452733
0.45481
0.457012
0.45933
0.461778
0.464331
0.467022
0.469816
0.472716
0.475698
0.478744
0.481835
0.484958
0.488067
0.491137
0.494113
0.496984
0.499638
0.501918
0.50375
0.504767
0.504943
0.503683
0.500645
0.398283
0.395162
0.389595
0.383064
0.375637
0.367976
0.360622
0.353532
0.346942
0.340894
0.335387
0.330402
0.325939
0.32197
0.318471
0.315427
0.31279
0.310563
0.308696
0.307173
0.305958
0.305033
0.304381
0.303984
0.303823
0.303882
0.304145
0.304598
0.305226
0.306015
0.306949
0.308017
0.309204
0.310499
0.311889
0.313363
0.314912
0.316523
0.318188
0.319895
0.321634
0.323393
0.325163
0.326936
0.328702
0.330446
0.332171
0.333864
0.335508
0.337094
0.338626
0.340099
0.341507
0.342849
0.34412
0.345319
0.346447
0.347504
0.348494
0.349415
0.350269
0.351061
0.3518
0.35249
0.353143
0.353767
0.354374
0.354975
0.355583
0.356208
0.35686
0.357598
0.358475
0.359457
0.360541
0.361733
0.363041
0.364476
0.366036
0.367737
0.36956
0.371534
0.373632
0.375857
0.378192
0.380623
0.383136
0.385721
0.388341
0.39098
0.393591
0.396169
0.398625
0.400833
0.402733
0.404028
0.40469
0.404221
0.402301
0.325853
0.323732
0.31964
0.314713
0.309078
0.303241
0.297642
0.292261
0.287281
0.282738
0.278626
0.274933
0.271656
0.268773
0.266263
0.264114
0.262287
0.260784
0.259565
0.258614
0.257904
0.257421
0.257147
0.25707
0.257172
0.25744
0.257861
0.258421
0.259107
0.259907
0.260808
0.261799
0.262867
0.264002
0.265193
0.26643
0.267704
0.269004
0.270321
0.271644
0.272964
0.274273
0.275562
0.276824
0.278051
0.279235
0.280373
0.281454
0.28247
0.283417
0.284297
0.285108
0.285846
0.28651
0.2871
0.287616
0.288059
0.28843
0.28873
0.288969
0.289153
0.289289
0.289385
0.28945
0.289494
0.289528
0.289563
0.289611
0.289683
0.289794
0.289957
0.290262
0.290675
0.291188
0.291807
0.292538
0.293386
0.294358
0.295459
0.296704
0.29808
0.299609
0.30127
0.303069
0.304991
0.307026
0.309163
0.311395
0.313694
0.316045
0.318414
0.320795
0.323119
0.325281
0.32723
0.328722
0.329719
0.329805
0.328693
0.270778
0.269411
0.266434
0.262733
0.258466
0.25402
0.249748
0.245648
0.241865
0.23843
0.235338
0.232579
0.230151
0.228037
0.226218
0.224686
0.223409
0.222388
0.221589
0.221001
0.220601
0.220375
0.220312
0.220398
0.22062
0.220967
0.221425
0.221985
0.222633
0.223359
0.224152
0.225002
0.225899
0.226833
0.227794
0.228774
0.229763
0.230752
0.231733
0.232696
0.233635
0.234542
0.235411
0.236237
0.237012
0.237732
0.238392
0.238986
0.239511
0.239965
0.240348
0.240662
0.240903
0.241074
0.241176
0.241209
0.241178
0.241084
0.240934
0.240736
0.240497
0.240225
0.239929
0.239618
0.239302
0.238993
0.238701
0.238436
0.238212
0.23804
0.237968
0.238016
0.238161
0.238405
0.238756
0.239219
0.239799
0.240506
0.241343
0.242319
0.243428
0.244685
0.246077
0.247606
0.249262
0.251038
0.252925
0.254917
0.256993
0.259141
0.261335
0.263569
0.265787
0.267904
0.269873
0.271494
0.272724
0.273215
0.272715
0.228272
0.227454
0.22531
0.222534
0.219299
0.2159
0.212623
0.209477
0.206579
0.203956
0.201604
0.199518
0.197695
0.196121
0.194782
0.193671
0.192762
0.192054
0.191522
0.191154
0.190933
0.190847
0.190884
0.191036
0.19129
0.191635
0.192061
0.192559
0.193117
0.193727
0.194379
0.195064
0.195773
0.196498
0.197229
0.19796
0.198682
0.199387
0.200067
0.200717
0.201329
0.201899
0.202421
0.202892
0.203307
0.203662
0.203955
0.204181
0.20434
0.204432
0.204458
0.204419
0.204315
0.204149
0.203924
0.203641
0.203306
0.202923
0.202499
0.20204
0.201556
0.201055
0.200544
0.200034
0.199533
0.199052
0.198601
0.198191
0.197833
0.197539
0.197366
0.197288
0.197302
0.197413
0.197629
0.197954
0.198393
0.198954
0.199639
0.200458
0.201403
0.202488
0.203703
0.20505
0.206521
0.208111
0.209814
0.211625
0.213526
0.21551
0.217554
0.219656
0.221767
0.22382
0.225769
0.227453
0.228823
0.229591
0.229535
0.194989
0.19456
0.193031
0.190947
0.188485
0.18587
0.183335
0.180896
0.17865
0.176621
0.174807
0.173204
0.17181
0.170615
0.169607
0.16878
0.168112
0.167605
0.167235
0.166994
0.166867
0.166844
0.166915
0.167073
0.167306
0.167606
0.167964
0.168371
0.168818
0.169297
0.1698
0.170319
0.170846
0.171373
0.171895
0.172403
0.172891
0.173352
0.173781
0.174172
0.17452
0.174821
0.175072
0.175271
0.175413
0.175498
0.175523
0.175487
0.17539
0.175233
0.175019
0.174748
0.174422
0.174046
0.173621
0.173153
0.172645
0.172103
0.171535
0.170945
0.170344
0.169738
0.169135
0.168545
0.167975
0.167434
0.166933
0.16648
0.166085
0.165773
0.165565
0.165442
0.165406
0.165463
0.165619
0.165878
0.166245
0.166725
0.167322
0.168041
0.168878
0.169845
0.170933
0.172144
0.173473
0.174916
0.176468
0.178126
0.179876
0.181712
0.183616
0.185585
0.187581
0.189546
0.191441
0.193131
0.194567
0.195509
0.19576
0.168562
0.168402
0.167323
0.165754
0.163867
0.161837
0.159855
0.157942
0.156176
0.154582
0.153158
0.151902
0.150812
0.149882
0.1491
0.148462
0.147952
0.147567
0.147292
0.147118
0.147032
0.147025
0.147091
0.147221
0.147408
0.147642
0.147917
0.148224
0.148557
0.148908
0.14927
0.149636
0.150001
0.150356
0.150698
0.151018
0.151313
0.151577
0.151805
0.151994
0.152138
0.152237
0.152288
0.152288
0.152237
0.152133
0.151976
0.151765
0.151502
0.151188
0.150825
0.150417
0.149965
0.149473
0.148945
0.148385
0.147797
0.147188
0.146564
0.145931
0.145296
0.144666
0.144049
0.143452
0.142883
0.14235
0.14186
0.141421
0.141041
0.140758
0.140556
0.140431
0.140388
0.140431
0.140566
0.140796
0.141124
0.141557
0.142096
0.142746
0.143505
0.14438
0.145367
0.146468
0.147678
0.148995
0.150415
0.151936
0.153547
0.155242
0.157009
0.158844
0.160716
0.162576
0.164389
0.166043
0.16749
0.168528
0.168982
0.147299
0.14732
0.146569
0.145381
0.143921
0.142328
0.140758
0.139234
0.137824
0.136549
0.135409
0.134403
0.133529
0.132783
0.132156
0.131643
0.131232
0.130922
0.130697
0.130552
0.130476
0.13046
0.1305
0.130588
0.130716
0.130879
0.13107
0.131282
0.131509
0.131745
0.131983
0.132218
0.132445
0.132659
0.132853
0.133025
0.133168
0.13328
0.133356
0.133394
0.133391
0.133345
0.133255
0.13312
0.13294
0.132713
0.132441
0.132124
0.131764
0.131362
0.130921
0.130443
0.129933
0.129392
0.128825
0.128237
0.127632
0.127014
0.126391
0.125767
0.125149
0.124542
0.123955
0.123392
0.122861
0.122369
0.121921
0.121526
0.121192
0.120946
0.120768
0.120662
0.120631
0.120678
0.120809
0.121026
0.121333
0.121733
0.12223
0.122826
0.123521
0.12432
0.125222
0.126226
0.127332
0.128535
0.129836
0.13123
0.13271
0.134272
0.135905
0.137606
0.139349
0.141094
0.142808
0.144398
0.145816
0.146894
0.147472
0.129975
0.130116
0.1296
0.128695
0.127553
0.126286
0.125023
0.123791
0.122645
0.121605
0.120672
0.119847
0.119127
0.11851
0.117987
0.117558
0.117209
0.116941
0.116741
0.116603
0.116518
0.116482
0.116486
0.116527
0.116598
0.116694
0.116808
0.116935
0.11707
0.117208
0.117343
0.117472
0.117589
0.11769
0.117771
0.117828
0.117858
0.117858
0.117825
0.117756
0.117651
0.117508
0.117327
0.117106
0.116847
0.116549
0.116213
0.115839
0.115431
0.11499
0.114518
0.114019
0.113494
0.112948
0.112385
0.111808
0.111221
0.11063
0.110039
0.109453
0.108878
0.10832
0.107783
0.107274
0.106797
0.106359
0.105966
0.105622
0.105343
0.105136
0.10499
0.104909
0.104895
0.104953
0.105086
0.105297
0.105588
0.105963
0.106424
0.106975
0.107614
0.108347
0.109172
0.11009
0.111101
0.112202
0.113392
0.114669
0.116027
0.117462
0.118966
0.120536
0.122151
0.123776
0.125382
0.12689
0.128255
0.129332
0.12998
0.115697
0.115914
0.115567
0.11487
0.113964
0.112942
0.11191
0.110896
0.109948
0.109082
0.108302
0.107608
0.106999
0.106472
0.106023
0.105647
0.105337
0.105092
0.1049
0.104759
0.104659
0.104596
0.104565
0.104562
0.104581
0.104617
0.104665
0.104722
0.104781
0.10484
0.104894
0.104939
0.104972
0.104988
0.104984
0.104959
0.104908
0.104829
0.104722
0.104583
0.104412
0.104209
0.103972
0.103703
0.103402
0.103068
0.102703
0.102308
0.101886
0.101438
0.100966
0.100474
0.0999637
0.0994387
0.0989023
0.0983582
0.0978103
0.0972627
0.0967197
0.0961858
0.0956657
0.095164
0.0946855
0.0942348
0.0938168
0.0934363
0.0930978
0.0928056
0.0925786
0.0924088
0.092294
0.0922373
0.0922416
0.0923104
0.0924463
0.0926518
0.0929295
0.0932823
0.0937118
0.0942212
0.0948101
0.0954831
0.0962391
0.0970796
0.0980039
0.0990109
0.1001
0.101268
0.102513
0.103829
0.105211
0.106656
0.108147
0.109653
0.111148
0.112565
0.113861
0.114912
0.115589
0.103803
0.104067
0.103838
0.103296
0.102566
0.101727
0.10087
0.100021
0.0992218
0.0984876
0.0978212
0.0972239
0.0966953
0.0962334
0.095834
0.0954951
0.0952091
0.0949752
0.0947851
0.0946347
0.0945178
0.0944298
0.0943668
0.0943247
0.094299
0.094286
0.0942814
0.0942816
0.0942824
0.0942805
0.0942724
0.094255
0.094225
0.0941797
0.0941166
0.0940332
0.0939275
0.0937977
0.0936423
0.0934603
0.0932511
0.0930142
0.0927497
0.0924579
0.0921392
0.0917944
0.0914247
0.0910313
0.0906161
0.0901809
0.089728
0.0892599
0.0887791
0.0882886
0.0877915
0.0872908
0.0867903
0.0862933
0.0858037
0.0853253
0.0848622
0.0844183
0.0839977
0.0836043
0.0832424
0.0829158
0.0826289
0.0823855
0.0822003
0.0820639
0.0819768
0.0819419
0.0819619
0.0820395
0.0821773
0.0823774
0.0826419
0.0829736
0.0833739
0.0838455
0.0843885
0.0850069
0.0857001
0.0864697
0.0873154
0.0882366
0.0892325
0.090302
0.0914413
0.0926478
0.0939164
0.0952438
0.0966159
0.098007
0.0993924
0.100715
0.101933
0.102941
0.103623
0.0937971
0.094087
0.093942
0.0935137
0.092916
0.0922165
0.0914926
0.0907698
0.0900836
0.0894488
0.0888683
0.0883436
0.0878748
0.0874603
0.087097
0.0867832
0.0865128
0.0862849
0.0860928
0.085933
0.0858001
0.0856905
0.0856005
0.085527
0.0854661
0.0854146
0.0853689
0.0853261
0.0852825
0.0852355
0.0851822
0.0851199
0.0850462
0.0849586
0.0848552
0.0847341
0.0845936
0.0844324
0.0842494
0.0840439
0.0838155
0.083564
0.0832896
0.0829927
0.0826738
0.0823338
0.0819739
0.0815951
0.0811994
0.0807883
0.0803639
0.0799286
0.0794846
0.0790346
0.0785812
0.0781273
0.077676
0.0772304
0.0767937
0.0763693
0.0759607
0.0755711
0.0752042
0.0748632
0.0745518
0.0742734
0.0740316
0.0738311
0.0736802
0.0735722
0.0735085
0.0734917
0.0735241
0.0736081
0.073746
0.0739397
0.0741911
0.0745025
0.0748754
0.075312
0.075813
0.0763815
0.0770176
0.0777227
0.078497
0.0793401
0.0802516
0.0812304
0.0822736
0.083379
0.0845424
0.0857608
0.087022
0.088304
0.0895839
0.0908124
0.0919503
0.0929058
0.0935736
0.0853056
0.085607
0.0855196
0.0851759
0.0846776
0.0840847
0.0834634
0.082838
0.0822395
0.0816815
0.0811671
0.080698
0.0802746
0.0798961
0.0795597
0.0792643
0.0790049
0.0787806
0.078586
0.078418
0.0782723
0.0781455
0.0780347
0.0779371
0.0778495
0.0777692
0.0776932
0.0776189
0.0775435
0.0774645
0.0773797
0.0772869
0.0771838
0.0770688
0.07694
0.076796
0.0766356
0.0764576
0.0762613
0.0760461
0.0758117
0.0755582
0.0752858
0.0749949
0.0746861
0.0743603
0.0740185
0.0736618
0.0732919
0.0729102
0.0725188
0.0721195
0.0717144
0.071306
0.0708965
0.0704886
0.0700848
0.0696878
0.0693006
0.068926
0.068567
0.0682265
0.0679074
0.0676127
0.0673454
0.0671084
0.0669044
0.0667408
0.0666182
0.0665337
0.0664891
0.0664867
0.0665284
0.0666165
0.0667528
0.0669392
0.0671774
0.0674693
0.0678164
0.0682207
0.068683
0.069206
0.0697901
0.0704368
0.0711463
0.0719186
0.0727534
0.0736499
0.0746055
0.0756185
0.0766854
0.0778033
0.0789619
0.0801417
0.0813219
0.0824594
0.0835171
0.0844154
0.0850584
0.078041
0.0783436
0.0782956
0.0780147
0.0775922
0.0770816
0.0765403
0.0759913
0.0754618
0.0749641
0.0745016
0.0740764
0.0736888
0.0733384
0.0730232
0.0727424
0.0724918
0.0722707
0.0720746
0.0719008
0.0717458
0.0716065
0.0714806
0.0713657
0.071259
0.0711583
0.071061
0.070965
0.0708678
0.0707674
0.0706618
0.0705493
0.0704281
0.0702966
0.0701535
0.0699975
0.0698276
0.069643
0.0694431
0.0692273
0.0689957
0.0687482
0.0684851
0.0682068
0.067914
0.0676074
0.0672879
0.0669567
0.0666152
0.0662647
0.0659069
0.0655437
0.0651769
0.0648085
0.0644407
0.0640757
0.0637158
0.0633633
0.0630208
0.0626908
0.0623759
0.0620785
0.0618012
0.0615466
0.0613172
0.0611154
0.0609435
0.0608097
0.0607103
0.0606451
0.0606158
0.0606244
0.0606728
0.0607629
0.0608963
0.0610748
0.0612998
0.0615731
0.0618961
0.0622705
0.0626973
0.0631788
0.0637157
0.0643094
0.0649603
0.0656685
0.0664339
0.0672557
0.0681318
0.0690607
0.0700395
0.0710654
0.0721296
0.0732147
0.0743016
0.0753526
0.0763327
0.0771721
0.0777837
0.0717806
0.0720774
0.0720556
0.0718218
0.0714575
0.0710116
0.0705337
0.0700456
0.0695712
0.0691219
0.0687014
0.0683115
0.0679531
0.0676259
0.0673285
0.0670601
0.0668176
0.0666001
0.0664041
0.0662272
0.0660664
0.0659191
0.0657832
0.0656567
0.0655374
0.0654231
0.0653118
0.0652017
0.0650906
0.0649768
0.0648588
0.0647349
0.0646036
0.0644638
0.0643141
0.0641537
0.0639817
0.0637973
0.0636
0.0633897
0.0631661
0.0629294
0.0626797
0.0624176
0.0621436
0.0618584
0.0615628
0.061258
0.060945
0.0606252
0.0603002
0.0599713
0.0596404
0.0593093
0.0589797
0.0586537
0.0583333
0.0580207
0.0577179
0.0574271
0.0571507
0.0568908
0.0566496
0.0564293
0.0562321
0.0560602
0.0559157
0.0558052
0.0557248
0.0556752
0.055658
0.055675
0.0557278
0.0558183
0.0559478
0.0561179
0.05633
0.0565856
0.0568861
0.057233
0.0576272
0.0580709
0.058565
0.0591106
0.0597085
0.0603588
0.0610613
0.0618154
0.0626194
0.063472
0.0643706
0.0653126
0.0662903
0.0672883
0.0682888
0.0692585
0.0701648
0.0709459
0.0715226
0.06635
0.0666361
0.0666315
0.0664332
0.0661145
0.06572
0.0652931
0.0648544
0.064425
0.0640155
0.0636296
0.0632693
0.0629355
0.0626282
0.0623464
0.0620894
0.0618549
0.0616421
0.0614479
0.0612704
0.0611069
0.0609553
0.0608138
0.0606805
0.0605535
0.0604312
0.0603117
0.0601933
0.0600743
0.0599533
0.0598288
0.0596994
0.059564
0.0594215
0.0592707
0.059111
0.0589415
0.0587618
0.0585713
0.0583698
0.0581574
0.057934
0.0576998
0.0574554
0.0572012
0.0569379
0.0566662
0.0563871
0.0561016
0.0558109
0.0555163
0.0552193
0.0549214
0.054624
0.0543289
0.0540379
0.0537527
0.0534751
0.0532071
0.0529507
0.0527076
0.05248
0.0522697
0.0520786
0.0519088
0.0517621
0.0516404
0.0515487
0.0514837
0.0514466
0.0514389
0.0514621
0.0515177
0.0516072
0.0517322
0.0518937
0.0520933
0.0523322
0.0526117
0.0529331
0.0532976
0.0537069
0.054162
0.0546641
0.0552139
0.0558117
0.0564574
0.0571503
0.057889
0.0586723
0.059498
0.0603637
0.0612624
0.0621806
0.0631015
0.0639956
0.0648324
0.0655571
0.0660976
0.0616114
0.0618835
0.0618898
0.0617186
0.0614361
0.0610831
0.060698
0.0603001
0.0599082
0.0595322
0.0591756
0.0588407
0.0585282
0.0582386
0.057971
0.0577251
0.0574988
0.0572916
0.0571009
0.0569249
0.0567615
0.0566087
0.0564649
0.0563286
0.0561981
0.0560719
0.0559484
0.0558262
0.0557038
0.0555799
0.0554533
0.0553228
0.0551873
0.0550459
0.0548977
0.054742
0.0545782
0.0544057
0.0542243
0.0540337
0.0538339
0.0536249
0.053407
0.0531805
0.052946
0.052704
0.0524552
0.0522004
0.0519406
0.0516768
0.0514103
0.0511422
0.050874
0.050607
0.0503427
0.0500826
0.0498284
0.0495816
0.049344
0.0491173
0.0489031
0.0487032
0.0485193
0.0483531
0.0482063
0.0480806
0.0479779
0.0479015
0.0478493
0.0478222
0.0478218
0.0478494
0.0479064
0.0479942
0.048114
0.0482671
0.0484546
0.0486777
0.0489377
0.0492358
0.0495729
0.0499508
0.0503705
0.0508332
0.0513394
0.0518897
0.0524838
0.0531213
0.0538008
0.0545213
0.0552808
0.056077
0.0569038
0.0577489
0.0585968
0.059421
0.0601931
0.0608642
0.0613684
0.0574544
0.0577107
0.0577236
0.0575732
0.0573199
0.0570012
0.0566509
0.0562873
0.0559273
0.0555798
0.0552487
0.054936
0.0546427
0.0543692
0.054115
0.0538799
0.0536623
0.0534616
0.0532758
0.0531032
0.0529419
0.0527903
0.0526469
0.0525104
0.0523793
0.0522524
0.0521281
0.0520054
0.0518827
0.0517591
0.0516334
0.0515046
0.0513718
0.0512341
0.0510908
0.0509413
0.0507849
0.0506212
0.0504501
0.0502712
0.0500845
0.0498902
0.0496884
0.0494795
0.0492638
0.049042
0.0488146
0.0485823
0.0483462
0.048107
0.0478659
0.0476239
0.0473823
0.0471423
0.0469052
0.0466725
0.0464455
0.0462257
0.0460145
0.0458136
0.0456243
0.0454483
0.0452869
0.0451418
0.0450145
0.0449064
0.0448196
0.0447559
0.0447139
0.0446949
0.0447001
0.0447308
0.0447882
0.0448735
0.044988
0.0451327
0.0453086
0.045517
0.0457588
0.0460353
0.0463474
0.0466967
0.0470841
0.0475108
0.0479776
0.0484847
0.0490321
0.0496193
0.0502451
0.0509085
0.0516079
0.052341
0.0531023
0.0538807
0.0546618
0.0554216
0.0561337
0.0567544
0.0572232
0.0537901
0.0540298
0.0540461
0.0539123
0.053683
0.0533928
0.0530721
0.0527378
0.0524053
0.0520829
0.0517742
0.0514814
0.0512055
0.050947
0.0507057
0.0504813
0.0502727
0.0500793
0.0498993
0.0497314
0.0495739
0.0494253
0.0492844
0.0491498
0.0490204
0.0488949
0.0487722
0.0486511
0.0485305
0.0484093
0.0482866
0.0481615
0.0480332
0.0479008
0.0477638
0.0476216
0.0474736
0.0473195
0.0471591
0.0469921
0.0468186
0.0466386
0.0464523
0.04626
0.0460621
0.045859
0.0456514
0.0454399
0.0452252
0.0450083
0.04479
0.0445714
0.0443535
0.0441375
0.0439246
0.043716
0.0435129
0.0433166
0.0431285
0.0429499
0.0427822
0.0426267
0.0424847
0.0423576
0.0422467
0.0421532
0.0420799
0.0420266
0.0419931
0.0419805
0.04199
0.0420226
0.0420796
0.0421621
0.042271
0.0424075
0.0425724
0.042767
0.0429919
0.0432485
0.0435376
0.0438606
0.0442186
0.0446126
0.0450434
0.0455113
0.0460163
0.0465578
0.0471348
0.0477464
0.0483911
0.0490668
0.0497685
0.050486
0.0512059
0.0519067
0.0525634
0.053137
0.053572
0.0505462
0.050769
0.050787
0.0506663
0.050457
0.0501912
0.0498959
0.0495871
0.0492787
0.0489784
0.04869
0.0484152
0.0481555
0.0479111
0.047682
0.0474683
0.0472689
0.0470833
0.04691
0.0467479
0.0465953
0.046451
0.0463139
0.0461828
0.0460566
0.0459342
0.0458146
0.0456968
0.0455797
0.0454624
0.0453441
0.0452239
0.0451011
0.0449751
0.0448451
0.0447108
0.0445717
0.0444274
0.0442777
0.0441224
0.0439616
0.0437953
0.0436237
0.043447
0.0432655
0.0430798
0.0428902
0.0426975
0.0425024
0.0423055
0.0421077
0.04191
0.0417133
0.0415186
0.041327
0.0411396
0.0409575
0.0407819
0.0406139
0.0404548
0.0403057
0.0401679
0.0400426
0.0399309
0.0398341
0.0397531
0.0396908
0.0396462
0.0396196
0.0396122
0.0396248
0.0396586
0.0397146
0.0397939
0.0398973
0.0400258
0.0401803
0.0403618
0.0405711
0.0408092
0.0410771
0.0413761
0.0417072
0.0420713
0.0424693
0.0429014
0.0433677
0.0438677
0.0444003
0.0449647
0.0455596
0.0461829
0.0468303
0.0474923
0.0481564
0.048803
0.0494089
0.0499388
0.0503417
0.0476634
0.0478698
0.0478879
0.0477779
0.0475857
0.0473408
0.0470678
0.0467814
0.0464945
0.0462141
0.0459439
0.0456859
0.0454411
0.0452101
0.0449929
0.0447897
0.0445996
0.0444221
0.0442561
0.0441003
0.0439535
0.0438144
0.0436821
0.0435555
0.0434336
0.0433154
0.0432
0.0430865
0.0429739
0.0428614
0.0427483
0.0426338
0.0425172
0.0423979
0.0422755
0.0421493
0.042019
0.0418844
0.0417451
0.0416012
0.0414525
0.0412991
0.0411411
0.0409789
0.0408126
0.0406427
0.0404697
0.0402941
0.0401166
0.0399377
0.0397584
0.0395794
0.0394015
0.0392257
0.039053
0.0388844
0.0387208
0.0385633
0.0384129
0.0382708
0.038138
0.0380156
0.0379047
0.0378063
0.0377215
0.0376513
0.037598
0.0375607
0.0375398
0.0375364
0.0375513
0.0375857
0.0376403
0.0377161
0.037814
0.0379348
0.0380794
0.0382486
0.0384434
0.0386644
0.0389128
0.0391897
0.039496
0.0398327
0.0402007
0.0406002
0.0410311
0.0414931
0.0419852
0.0425066
0.0430561
0.0436318
0.0442295
0.0448408
0.0454539
0.0460508
0.04661
0.0470995
0.0474725
0.0450926
0.0452833
0.0453008
0.0451996
0.0450221
0.0447956
0.0445422
0.0442758
0.0440081
0.0437459
0.0434924
0.0432498
0.043019
0.0428007
0.0425951
0.0424021
0.0422213
0.0420522
0.0418937
0.0417447
0.0416041
0.0414709
0.041344
0.0412226
0.0411056
0.0409923
0.0408818
0.0407733
0.0406658
0.0405587
0.0404513
0.0403428
0.0402327
0.0401204
0.0400055
0.0398874
0.0397659
0.0396406
0.0395114
0.0393782
0.0392409
0.0390995
0.0389543
0.0388054
0.0386531
0.0384977
0.0383398
0.0381797
0.038018
0.0378554
0.0376926
0.0375303
0.0373693
0.0372104
0.0370545
0.0369025
0.0367552
0.0366137
0.0364789
0.0363517
0.0362331
0.0361241
0.0360257
0.0359388
0.0358644
0.0358034
0.0357577
0.0357264
0.0357103
0.03571
0.0357266
0.0357609
0.0358138
0.035886
0.0359785
0.0360919
0.0362271
0.0363849
0.036566
0.0367712
0.0370015
0.0372579
0.0375414
0.037853
0.0381934
0.038563
0.0389616
0.0393889
0.0398439
0.040326
0.0408339
0.041366
0.0419185
0.0424835
0.0430499
0.0436014
0.0441177
0.0445699
0.0449149
0.042793
0.042969
0.0429852
0.0428916
0.042727
0.0425166
0.0422808
0.0420324
0.0417822
0.0415365
0.0412985
0.0410702
0.0408526
0.0406464
0.0404518
0.0402689
0.0400973
0.0399365
0.0397856
0.0396437
0.0395097
0.0393826
0.0392615
0.0391456
0.0390341
0.0389261
0.0388209
0.0387176
0.0386157
0.0385142
0.0384127
0.0383105
0.0382069
0.0381016
0.0379941
0.037884
0.0377709
0.0376546
0.037535
0.0374118
0.0372852
0.0371551
0.0370216
0.036885
0.0367455
0.0366034
0.0364592
0.0363132
0.0361659
0.036018
0.0358701
0.0357229
0.0355769
0.0354331
0.0352922
0.0351549
0.0350222
0.0348948
0.0347737
0.0346597
0.0345536
0.0344564
0.0343689
0.034292
0.0342266
0.0341735
0.0341342
0.0341081
0.0340957
0.034098
0.0341157
0.0341496
0.0342005
0.0342691
0.0343562
0.0344625
0.0345888
0.0347358
0.0349041
0.0350945
0.035308
0.0355455
0.0358081
0.0360965
0.0364115
0.0367535
0.0371224
0.0375178
0.0379388
0.0383848
0.0388548
0.039347
0.039858
0.0403806
0.0409043
0.041414
0.0418911
0.042309
0.042628
0.0407305
0.0408926
0.0409074
0.0408202
0.040667
0.0404712
0.0402512
0.0400191
0.0397849
0.0395544
0.0393308
0.0391159
0.0389108
0.038716
0.038532
0.0383588
0.0381962
0.0380436
0.0379004
0.0377656
0.0376382
0.0375174
0.0374024
0.0372923
0.0371863
0.0370839
0.0369841
0.0368864
0.03679
0.0366944
0.0365988
0.0365028
0.0364058
0.0363074
0.0362071
0.0361046
0.0359996
0.0358919
0.0357813
0.0356676
0.035551
0.0354313
0.0353087
0.0351835
0.0350557
0.0349258
0.034794