/*--------------------------------*- C++ -*----------------------------------*\
  =========                 |
  \\      /  F ield         | OpenFOAM: The Open Source CFD Toolbox
   \\    /   O peration     | Website:  https://openfoam.org
    \\  /    A nd           | Version:  9
     \\/     M anipulation  |
\*---------------------------------------------------------------------------*/
FoamFile
{
    format      ascii;
    class       volScalarField;
    location    "3000";
    object      p;
}
// * * * * * * * * * * * * * * * * * * * * * * * * * * * * * * * * * * * * * //

dimensions      [0 2 -2 0 0 0 0];

internalField   nonuniform List<scalar> 
14751
(
4.16487e-11
3.71568e-06
8.07275e-06
1.23513e-05
1.689e-05
2.15081e-05
2.61672e-05
3.0864e-05
3.55311e-05
4.01414e-05
4.46527e-05
4.90417e-05
5.32703e-05
5.73158e-05
6.11601e-05
6.47748e-05
6.81587e-05
7.12882e-05
7.41669e-05
7.67802e-05
7.91327e-05
8.12203e-05
8.30472e-05
8.46128e-05
8.59248e-05
8.6987e-05
8.78055e-05
8.83879e-05
8.874e-05
8.88695e-05
8.87841e-05
8.84909e-05
8.79978e-05
8.73118e-05
8.644e-05
8.5391e-05
8.41699e-05
8.27844e-05
8.124e-05
7.95444e-05
7.77013e-05
7.57167e-05
7.35986e-05
7.13533e-05
6.89903e-05
6.65156e-05
6.39366e-05
6.12605e-05
5.84942e-05
5.56459e-05
5.27224e-05
4.97307e-05
4.66817e-05
4.35835e-05
4.04449e-05
3.7275e-05
3.40822e-05
3.08769e-05
2.76686e-05
2.44651e-05
2.1279e-05
1.81175e-05
1.4991e-05
1.19106e-05
8.88328e-06
5.91977e-06
3.02813e-06
2.19149e-07
-2.50069e-06
-5.12208e-06
-7.63687e-06
-1.00379e-05
-1.23168e-05
-1.44669e-05
-1.64814e-05
-1.83532e-05
-2.00747e-05
-2.16408e-05
-2.30407e-05
-2.42745e-05
-2.53241e-05
-2.61939e-05
-2.68657e-05
-2.73369e-05
-2.75956e-05
-2.76337e-05
-2.74388e-05
-2.70038e-05
-2.6315e-05
-2.53677e-05
-2.41399e-05
-2.26375e-05
-2.08484e-05
-1.87483e-05
-1.63825e-05
-1.36841e-05
-1.07024e-05
-7.42042e-06
-4.136e-06
-2.28978e-10
3.71542e-06
8.07232e-06
1.23508e-05
1.68893e-05
2.15073e-05
2.61664e-05
3.08632e-05
3.55302e-05
4.01405e-05
4.46518e-05
4.90408e-05
5.32693e-05
5.73148e-05
6.1159e-05
6.47737e-05
6.81574e-05
7.12868e-05
7.41655e-05
7.67787e-05
7.91311e-05
8.12187e-05
8.30455e-05
8.46111e-05
8.59231e-05
8.69853e-05
8.78039e-05
8.83863e-05
8.87385e-05
8.88681e-05
8.87828e-05
8.84897e-05
8.79967e-05
8.73107e-05
8.6439e-05
8.53901e-05
8.41691e-05
8.27838e-05
8.12394e-05
7.9544e-05
7.77009e-05
7.57164e-05
7.35984e-05
7.13532e-05
6.89903e-05
6.65157e-05
6.39368e-05
6.12608e-05
5.84946e-05
5.56464e-05
5.2723e-05
4.97314e-05
4.66824e-05
4.35844e-05
4.04459e-05
3.7276e-05
3.40834e-05
3.08781e-05
2.76699e-05
2.44665e-05
2.12805e-05
1.81191e-05
1.49926e-05
1.19124e-05
8.88509e-06
5.92166e-06
3.03008e-06
2.2117e-07
-2.49861e-06
-5.11995e-06
-7.63468e-06
-1.00356e-05
-1.23145e-05
-1.44646e-05
-1.64791e-05
-1.83508e-05
-2.00724e-05
-2.16385e-05
-2.30384e-05
-2.42723e-05
-2.53219e-05
-2.61918e-05
-2.68637e-05
-2.73349e-05
-2.75938e-05
-2.7632e-05
-2.74372e-05
-2.70023e-05
-2.63137e-05
-2.53665e-05
-2.41388e-05
-2.26365e-05
-2.08476e-05
-1.87476e-05
-1.63819e-05
-1.36837e-05
-1.07022e-05
-7.42025e-06
-4.13596e-06
-4.30429e-10
3.71422e-06
8.07097e-06
1.23488e-05
1.68871e-05
2.15051e-05
2.61644e-05
3.08615e-05
3.55289e-05
4.01395e-05
4.4651e-05
4.90402e-05
5.3269e-05
5.73146e-05
6.1159e-05
6.47736e-05
6.81573e-05
7.12865e-05
7.4165e-05
7.67779e-05
7.91301e-05
8.12175e-05
8.30442e-05
8.46097e-05
8.59216e-05
8.69838e-05
8.78023e-05
8.83848e-05
8.87369e-05
8.88666e-05
8.87814e-05
8.84884e-05
8.79955e-05
8.73097e-05
8.64381e-05
8.53893e-05
8.41684e-05
8.27832e-05
8.1239e-05
7.95437e-05
7.77007e-05
7.57163e-05
7.35984e-05
7.13534e-05
6.89906e-05
6.65161e-05
6.39374e-05
6.12615e-05
5.84954e-05
5.56473e-05
5.27241e-05
4.97325e-05
4.66837e-05
4.35858e-05
4.04474e-05
3.72777e-05
3.40852e-05
3.088e-05
2.76719e-05
2.44686e-05
2.12828e-05
1.81214e-05
1.49951e-05
1.19149e-05
8.88776e-06
5.92442e-06
3.03293e-06
2.24103e-07
-2.49561e-06
-5.11687e-06
-7.63155e-06
-1.00325e-05
-1.23113e-05
-1.44614e-05
-1.64758e-05
-1.83476e-05
-2.00692e-05
-2.16354e-05
-2.30353e-05
-2.42693e-05
-2.53191e-05
-2.61891e-05
-2.68612e-05
-2.73327e-05
-2.75918e-05
-2.76303e-05
-2.74357e-05
-2.7001e-05
-2.63125e-05
-2.53655e-05
-2.4138e-05
-2.26357e-05
-2.08468e-05
-1.87467e-05
-1.63811e-05
-1.36832e-05
-1.0702e-05
-7.41991e-06
-4.13708e-06
-9.50488e-10
3.71189e-06
8.06844e-06
1.23454e-05
1.68833e-05
2.15016e-05
2.61612e-05
3.0859e-05
3.5527e-05
4.01381e-05
4.46501e-05
4.90398e-05
5.3269e-05
5.7315e-05
6.11596e-05
6.47743e-05
6.8158e-05
7.1287e-05
7.41651e-05
7.67778e-05
7.91295e-05
8.12166e-05
8.3043e-05
8.46083e-05
8.59201e-05
8.69822e-05
8.78006e-05
8.83831e-05
8.87353e-05
8.8865e-05
8.87799e-05
8.8487e-05
8.79942e-05
8.73085e-05
8.64371e-05
8.53885e-05
8.41678e-05
8.27828e-05
8.12387e-05
7.95435e-05
7.77007e-05
7.57166e-05
7.35989e-05
7.1354e-05
6.89914e-05
6.65172e-05
6.39386e-05
6.12629e-05
5.84971e-05
5.56491e-05
5.2726e-05
4.97347e-05
4.66861e-05
4.35883e-05
4.04501e-05
3.72806e-05
3.40882e-05
3.08832e-05
2.76753e-05
2.44722e-05
2.12865e-05
1.81253e-05
1.49991e-05
1.19191e-05
8.89204e-06
5.92881e-06
3.03743e-06
2.28687e-07
-2.49094e-06
-5.11215e-06
-7.62678e-06
-1.00277e-05
-1.23065e-05
-1.44566e-05
-1.64711e-05
-1.83429e-05
-2.00645e-05
-2.16309e-05
-2.30309e-05
-2.42651e-05
-2.53152e-05
-2.61855e-05
-2.6858e-05
-2.73299e-05
-2.75895e-05
-2.76284e-05
-2.74342e-05
-2.69998e-05
-2.63116e-05
-2.53649e-05
-2.41375e-05
-2.26352e-05
-2.08464e-05
-1.87461e-05
-1.63808e-05
-1.3683e-05
-1.07024e-05
-7.41967e-06
-4.13996e-06
-2.62237e-09
3.7079e-06
8.06395e-06
1.23399e-05
1.6877e-05
2.14956e-05
2.61556e-05
3.08541e-05
3.55229e-05
4.01348e-05
4.46474e-05
4.90376e-05
5.32674e-05
5.73139e-05
6.11589e-05
6.47738e-05
6.81574e-05
7.12862e-05
7.4164e-05
7.67762e-05
7.91275e-05
8.12142e-05
8.30403e-05
8.46055e-05
8.59171e-05
8.69791e-05
8.77976e-05
8.83801e-05
8.87324e-05
8.88623e-05
8.87773e-05
8.84847e-05
8.79921e-05
8.73067e-05
8.64356e-05
8.53873e-05
8.41669e-05
8.27822e-05
8.12384e-05
7.95436e-05
7.77011e-05
7.57173e-05
7.36e-05
7.13555e-05
6.89932e-05
6.65194e-05
6.39412e-05
6.12659e-05
5.85003e-05
5.56527e-05
5.273e-05
4.9739e-05
4.66907e-05
4.35933e-05
4.04554e-05
3.72861e-05
3.40941e-05
3.08893e-05
2.76817e-05
2.44788e-05
2.12933e-05
1.81323e-05
1.50064e-05
1.19265e-05
8.8996e-06
5.93651e-06
3.04524e-06
2.36579e-07
-2.48298e-06
-5.10415e-06
-7.61876e-06
-1.00197e-05
-1.22985e-05
-1.44487e-05
-1.64633e-05
-1.83353e-05
-2.00571e-05
-2.16237e-05
-2.30239e-05
-2.42586e-05
-2.5309e-05
-2.61799e-05
-2.6853e-05
-2.73255e-05
-2.75857e-05
-2.76253e-05
-2.74317e-05
-2.69979e-05
-2.63101e-05
-2.53639e-05
-2.41368e-05
-2.26347e-05
-2.08462e-05
-1.87458e-05
-1.63809e-05
-1.36835e-05
-1.07036e-05
-7.41978e-06
-4.14498e-06
-6.70486e-09
3.70114e-06
8.05618e-06
1.23309e-05
1.68668e-05
2.14856e-05
2.6146e-05
3.08452e-05
3.5515e-05
4.01277e-05
4.46411e-05
4.90321e-05
5.32625e-05
5.73096e-05
6.11551e-05
6.47703e-05
6.8154e-05
7.12826e-05
7.41601e-05
7.67719e-05
7.91229e-05
8.12093e-05
8.30352e-05
8.46003e-05
8.59119e-05
8.6974e-05
8.77926e-05
8.83754e-05
8.8728e-05
8.88582e-05
8.87737e-05
8.84815e-05
8.79894e-05
8.73045e-05
8.64339e-05
8.53861e-05
8.41662e-05
8.27821e-05
8.12389e-05
7.95446e-05
7.77027e-05
7.57195e-05
7.36027e-05
7.13588e-05
6.89971e-05
6.65238e-05
6.39462e-05
6.12714e-05
5.85064e-05
5.56593e-05
5.27371e-05
4.97468e-05
4.66991e-05
4.36022e-05
4.04647e-05
3.72958e-05
3.41041e-05
3.08997e-05
2.76924e-05
2.44898e-05
2.13045e-05
1.81438e-05
1.5018e-05
1.19382e-05
8.91146e-06
5.94846e-06
3.05725e-06
2.48588e-07
-2.47098e-06
-5.09221e-06
-7.60691e-06
-1.00079e-05
-1.2287e-05
-1.44374e-05
-1.64522e-05
-1.83245e-05
-2.00466e-05
-2.16136e-05
-2.30143e-05
-2.42495e-05
-2.53005e-05
-2.61722e-05
-2.68461e-05
-2.73195e-05
-2.75806e-05
-2.76212e-05
-2.74284e-05
-2.69955e-05
-2.63085e-05
-2.53631e-05
-2.41366e-05
-2.26349e-05
-2.08468e-05
-1.87465e-05
-1.63823e-05
-1.36855e-05
-1.07066e-05
-7.4214e-06
-4.15295e-06
-1.44731e-08
3.69051e-06
8.04398e-06
1.23174e-05
1.68518e-05
2.14706e-05
2.61313e-05
3.08314e-05
3.55022e-05
4.01161e-05
4.46305e-05
4.90223e-05
5.32538e-05
5.73017e-05
6.11481e-05
6.47637e-05
6.81478e-05
7.12766e-05
7.4154e-05
7.67656e-05
7.91164e-05
8.12027e-05
8.30285e-05
8.45937e-05
8.59055e-05
8.69679e-05
8.7787e-05
8.83702e-05
8.87233e-05
8.88542e-05
8.87703e-05
8.84787e-05
8.79874e-05
8.73032e-05
8.64334e-05
8.53864e-05
8.41673e-05
8.27839e-05
8.12414e-05
7.95479e-05
7.77067e-05
7.57245e-05
7.36087e-05
7.13657e-05
6.90047e-05
6.6532e-05
6.39551e-05
6.12809e-05
5.85165e-05
5.567e-05
5.27486e-05
4.97591e-05
4.6712e-05
4.36155e-05
4.04784e-05
3.73099e-05
3.41186e-05
3.09145e-05
2.77074e-05
2.45051e-05
2.13199e-05
1.81593e-05
1.50336e-05
1.19539e-05
8.92711e-06
5.96406e-06
3.07278e-06
2.63974e-07
-2.45575e-06
-5.0772e-06
-7.59214e-06
-9.99348e-06
-1.22728e-05
-1.44236e-05
-1.64388e-05
-1.83116e-05
-2.00342e-05
-2.16018e-05
-2.3003e-05
-2.42391e-05
-2.52909e-05
-2.61636e-05
-2.68386e-05
-2.73133e-05
-2.75756e-05
-2.76174e-05
-2.74258e-05
-2.69941e-05
-2.6308e-05
-2.53637e-05
-2.41381e-05
-2.26369e-05
-2.08496e-05
-1.87495e-05
-1.63861e-05
-1.36901e-05
-1.07127e-05
-7.42596e-06
-4.16464e-06
-2.71102e-08
3.67511e-06
8.02639e-06
1.22985e-05
1.68314e-05
2.14499e-05
2.61113e-05
3.08123e-05
3.54845e-05
4.00996e-05
4.46154e-05
4.90086e-05
5.32416e-05
5.7291e-05
6.11386e-05
6.47551e-05
6.81401e-05
7.12692e-05
7.41467e-05
7.67585e-05
7.91093e-05
8.11957e-05
8.30218e-05
8.45873e-05
8.58996e-05
8.69625e-05
8.77822e-05
8.83661e-05
8.872e-05
8.88517e-05
8.87686e-05
8.84779e-05
8.79875e-05
8.73043e-05
8.64355e-05
8.53894e-05
8.41712e-05
8.27887e-05
8.12472e-05
7.95544e-05
7.77142e-05
7.57332e-05
7.36188e-05
7.1377e-05
6.90169e-05
6.65451e-05
6.39689e-05
6.12954e-05
5.85315e-05
5.56856e-05
5.27647e-05
4.97758e-05
4.67292e-05
4.36331e-05
4.04964e-05
3.73282e-05
3.41371e-05
3.09332e-05
2.77261e-05
2.4524e-05
2.13388e-05
1.81782e-05
1.50525e-05
1.19726e-05
8.94566e-06
5.98239e-06
3.09088e-06
2.81743e-07
-2.43831e-06
-5.06014e-06
-7.5755e-06
-9.97731e-06
-1.22572e-05
-1.44085e-05
-1.64242e-05
-1.82976e-05
-2.00209e-05
-2.15892e-05
-2.29913e-05
-2.42284e-05
-2.52813e-05
-2.61553e-05
-2.68317e-05
-2.73078e-05
-2.75717e-05
-2.76151e-05
-2.74249e-05
-2.69946e-05
-2.63098e-05
-2.53668e-05
-2.41423e-05
-2.2642e-05
-2.08555e-05
-1.87559e-05
-1.63935e-05
-1.36986e-05
-1.0723e-05
-7.4346e-06
-4.18071e-06
-4.57073e-08
3.65417e-06
8.00277e-06
1.22739e-05
1.68051e-05
2.14236e-05
2.60862e-05
3.07887e-05
3.54626e-05
4.00795e-05
4.45971e-05
4.89921e-05
5.32272e-05
5.72785e-05
6.11277e-05
6.47456e-05
6.81316e-05
7.12614e-05
7.41394e-05
7.67515e-05
7.91027e-05
8.11895e-05
8.3016e-05
8.45822e-05
8.58952e-05
8.69589e-05
8.77795e-05
8.83642e-05
8.87191e-05
8.88518e-05
8.87698e-05
8.84802e-05
8.79909e-05
8.73088e-05
8.6441e-05
8.53959e-05
8.41788e-05
8.27973e-05
8.12567e-05
7.95649e-05
7.77256e-05
7.57457e-05
7.36326e-05
7.13922e-05
6.90334e-05
6.65628e-05
6.39875e-05
6.13148e-05
5.85515e-05
5.57061e-05
5.27857e-05
4.97973e-05
4.67511e-05
4.36553e-05
4.05188e-05
3.73508e-05
3.41598e-05
3.09559e-05
2.77487e-05
2.45465e-05
2.13612e-05
1.82004e-05
1.50744e-05
1.19941e-05
8.96683e-06
6.00314e-06
3.11119e-06
3.01511e-07
-2.41908e-06
-5.04151e-06
-7.55749e-06
-9.95997e-06
-1.22405e-05
-1.43925e-05
-1.6409e-05
-1.82833e-05
-2.00074e-05
-2.15768e-05
-2.29799e-05
-2.42183e-05
-2.52725e-05
-2.6148e-05
-2.68261e-05
-2.7304e-05
-2.75698e-05
-2.7615e-05
-2.74265e-05
-2.6998e-05
-2.63148e-05
-2.53733e-05
-2.41503e-05
-2.26509e-05
-2.08655e-05
-1.87666e-05
-1.64053e-05
-1.37119e-05
-1.07384e-05
-7.44851e-06
-4.20186e-06
-7.02872e-08
3.62843e-06
7.97414e-06
1.22445e-05
1.67743e-05
2.13927e-05
2.6057e-05
3.07613e-05
3.54373e-05
4.00563e-05
4.45762e-05
4.89734e-05
5.32108e-05
5.72645e-05
6.11158e-05
6.47355e-05
6.81229e-05
7.12539e-05
7.41327e-05
7.67456e-05
7.90974e-05
8.11849e-05
8.30122e-05
8.45792e-05
8.58932e-05
8.69579e-05
8.77796e-05
8.83654e-05
8.87215e-05
8.88554e-05
8.87746e-05
8.84862e-05
8.79981e-05
8.73172e-05
8.64506e-05
8.54066e-05
8.41906e-05
8.28101e-05
8.12705e-05
7.95796e-05
7.77413e-05
7.57624e-05
7.36503e-05
7.1411e-05
6.90535e-05
6.65841e-05
6.40097e-05
6.1338e-05
5.85758e-05
5.57311e-05
5.28112e-05
4.98232e-05
4.67774e-05
4.36819e-05
4.05455e-05
3.73776e-05
3.41866e-05
3.09826e-05
2.77752e-05
2.45728e-05
2.1387e-05
1.82258e-05
1.50993e-05
1.20185e-05
8.99061e-06
6.02626e-06
3.13363e-06
3.23171e-07
-2.3982e-06
-5.02146e-06
-7.53831e-06
-9.94168e-06
-1.22231e-05
-1.43761e-05
-1.63936e-05
-1.8269e-05
-1.99943e-05
-2.1565e-05
-2.29694e-05
-2.42093e-05
-2.52652e-05
-2.61425e-05
-2.68226e-05
-2.73026e-05
-2.75705e-05
-2.76178e-05
-2.74315e-05
-2.70049e-05
-2.63236e-05
-2.53839e-05
-2.41626e-05
-2.26645e-05
-2.08804e-05
-1.87824e-05
-1.64222e-05
-1.37305e-05
-1.07595e-05
-7.46815e-06
-4.22813e-06
-1.00078e-07
3.59857e-06
7.94089e-06
1.22108e-05
1.67391e-05
2.13574e-05
2.60235e-05
3.07296e-05
3.54082e-05
4.00298e-05
4.45525e-05
4.89524e-05
5.31928e-05
5.72493e-05
6.11032e-05
6.47253e-05
6.81147e-05
7.12473e-05
7.41273e-05
7.67413e-05
7.90941e-05
8.11826e-05
8.3011e-05
8.45792e-05
8.58944e-05
8.69603e-05
8.77834e-05
8.83704e-05
8.87278e-05
8.88631e-05
8.87836e-05
8.84965e-05
8.80097e-05
8.733e-05
8.64647e-05
8.54219e-05
8.42069e-05
8.28275e-05
8.12889e-05
7.9599e-05
7.77616e-05
7.57838e-05
7.36726e-05
7.14342e-05
6.90775e-05
6.66089e-05
6.40352e-05
6.13643e-05
5.86031e-05
5.57592e-05
5.28398e-05
4.98522e-05
4.68067e-05
4.37114e-05
4.05751e-05
3.74072e-05
3.42162e-05
3.10121e-05
2.78045e-05
2.46017e-05
2.14154e-05
1.82536e-05
1.51265e-05
1.20448e-05
9.01615e-06
6.05092e-06
3.15738e-06
3.45903e-07
-2.37648e-06
-5.00081e-06
-7.51876e-06
-9.92324e-06
-1.22058e-05
-1.436e-05
-1.63788e-05
-1.82554e-05
-1.9982e-05
-2.15541e-05
-2.29601e-05
-2.42017e-05
-2.52596e-05
-2.6139e-05
-2.68213e-05
-2.73037e-05
-2.7574e-05
-2.76238e-05
-2.74397e-05
-2.70155e-05
-2.63363e-05
-2.53986e-05
-2.41793e-05
-2.26826e-05
-2.08998e-05
-1.8803e-05
-1.64438e-05
-1.3754e-05
-1.07853e-05
-7.49257e-06
-4.25849e-06
-1.35396e-07
3.56389e-06
7.90212e-06
1.21718e-05
1.66989e-05
2.13171e-05
2.59853e-05
3.06938e-05
3.53755e-05
4.00002e-05
4.45264e-05
4.89296e-05
5.31735e-05
5.72335e-05
6.10906e-05
6.47157e-05
6.81074e-05
7.12421e-05
7.41237e-05
7.67393e-05
7.90934e-05
8.11832e-05
8.30129e-05
8.45826e-05
8.58993e-05
8.69666e-05
8.77912e-05
8.83797e-05
8.87386e-05
8.88753e-05
8.87972e-05
8.85116e-05
8.80261e-05
8.73478e-05
8.64837e-05
8.5442e-05
8.42282e-05
8.28498e-05
8.13123e-05
7.96233e-05
7.77868e-05
7.58099e-05
7.36996e-05
7.14621e-05
6.91062e-05
6.66382e-05
6.40651e-05
6.13947e-05
5.86339e-05
5.57903e-05
5.28711e-05
4.98837e-05
4.68383e-05
4.37431e-05
4.06067e-05
3.74387e-05
3.42474e-05
3.10431e-05
2.78351e-05
2.46318e-05
2.14449e-05
1.82823e-05
1.51544e-05
1.20717e-05
9.04207e-06
6.07578e-06
3.18116e-06
3.68485e-07
-2.35509e-06
-4.98067e-06
-7.49984e-06
-9.90557e-06
-1.21895e-05
-1.4345e-05
-1.63653e-05
-1.82433e-05
-1.99714e-05
-2.1545e-05
-2.29527e-05
-2.41962e-05
-2.52562e-05
-2.61378e-05
-2.68226e-05
-2.73076e-05
-2.75806e-05
-2.7633e-05
-2.74516e-05
-2.70298e-05
-2.63529e-05
-2.54174e-05
-2.42003e-05
-2.27051e-05
-2.09238e-05
-1.88284e-05
-1.64701e-05
-1.37821e-05
-1.08159e-05
-7.52176e-06
-4.29291e-06
-1.77146e-07
3.52369e-06
7.85744e-06
1.21272e-05
1.66532e-05
2.12716e-05
2.59425e-05
3.06539e-05
3.53392e-05
3.99677e-05
4.44979e-05
4.89051e-05
5.31532e-05
5.72173e-05
6.10783e-05
6.47069e-05
6.81015e-05
7.12387e-05
7.41224e-05
7.67399e-05
7.90957e-05
8.11872e-05
8.30186e-05
8.459e-05
8.59083e-05
8.69774e-05
8.78036e-05
8.83938e-05
8.87543e-05
8.88925e-05
8.8816e-05
8.85318e-05
8.80477e-05
8.73707e-05
8.6508e-05
8.54675e-05
8.42548e-05
8.28774e-05
8.13409e-05
7.96527e-05
7.78171e-05
7.58411e-05
7.37316e-05
7.14949e-05
6.91397e-05
6.66723e-05
6.40996e-05
6.14296e-05
5.8669e-05
5.58255e-05
5.29064e-05
4.99191e-05
4.68736e-05
4.37781e-05
4.06414e-05
3.74729e-05
3.42811e-05
3.10762e-05
2.78675e-05
2.46634e-05
2.14755e-05
1.8312e-05
1.51831e-05
1.20993e-05
9.06841e-06
6.10087e-06
3.20498e-06
3.90916e-07
-2.33404e-06
-4.96101e-06
-7.48155e-06
-9.88867e-06
-1.21741e-05
-1.43312e-05
-1.6353e-05
-1.82328e-05
-1.99626e-05
-2.15379e-05
-2.29476e-05
-2.41931e-05
-2.52556e-05
-2.61396e-05
-2.68271e-05
-2.73149e-05
-2.75908e-05
-2.76461e-05
-2.74675e-05
-2.70484e-05
-2.63742e-05
-2.5441e-05
-2.42262e-05
-2.27329e-05
-2.0953e-05
-1.88591e-05
-1.65017e-05
-1.38158e-05
-1.08522e-05
-7.55692e-06
-4.33237e-06
-2.25588e-07
3.47779e-06
7.8068e-06
1.2077e-05
1.66023e-05
2.12211e-05
2.58952e-05
3.06099e-05
3.52995e-05
3.99324e-05
4.44673e-05
4.88792e-05
5.31322e-05
5.7201e-05
6.10665e-05
6.46992e-05
6.80973e-05
7.12376e-05
7.41238e-05
7.67436e-05
7.91015e-05
8.1195e-05
8.30283e-05
8.46017e-05
8.59219e-05
8.69928e-05
8.7821e-05
8.84129e-05
8.87751e-05
8.8915e-05
8.88401e-05
8.85575e-05
8.80749e-05
8.73993e-05
8.65379e-05
8.54985e-05
8.4287e-05
8.29106e-05
8.1375e-05
7.96877e-05
7.78529e-05
7.58777e-05
7.37689e-05
7.1533e-05
6.91783e-05
6.67114e-05
6.41391e-05
6.14693e-05
5.87088e-05
5.58653e-05
5.29461e-05
4.99587e-05
4.69129e-05
4.3817e-05
4.06798e-05
3.75106e-05
3.43181e-05
3.11124e-05
2.79026e-05
2.46976e-05
2.15085e-05
1.83438e-05
1.52135e-05
1.21283e-05
9.09598e-06
6.12692e-06
3.22952e-06
4.13814e-07
-2.31277e-06
-4.94133e-06
-7.46346e-06
-9.87226e-06
-1.21594e-05
-1.43183e-05
-1.63419e-05
-1.82236e-05
-1.99554e-05
-2.15328e-05
-2.29447e-05
-2.41924e-05
-2.52576e-05
-2.61443e-05
-2.68348e-05
-2.73258e-05
-2.76048e-05
-2.76633e-05
-2.74878e-05
-2.70717e-05
-2.64003e-05
-2.54698e-05
-2.42576e-05
-2.27662e-05
-2.09879e-05
-1.88957e-05
-1.65391e-05
-1.38555e-05
-1.08946e-05
-7.59848e-06
-4.37717e-06
-2.80848e-07
3.42602e-06
7.75008e-06
1.20209e-05
1.65459e-05
2.11654e-05
2.58433e-05
3.05619e-05
3.52564e-05
3.98944e-05
4.44348e-05
4.88519e-05
5.31106e-05
5.71849e-05
6.10555e-05
6.4693e-05
6.80951e-05
7.1239e-05
7.41281e-05
7.67507e-05
7.9111e-05
8.12068e-05
8.30423e-05
8.4618e-05
8.59404e-05
8.70134e-05
8.78436e-05
8.84374e-05
8.88015e-05
8.89432e-05
8.887e-05
8.8589e-05
8.8108e-05
8.74337e-05
8.65737e-05
8.55356e-05
8.43251e-05
8.29497e-05
8.14151e-05
7.97284e-05
7.78944e-05
7.592e-05
7.38118e-05
7.15766e-05
6.92223e-05
6.67558e-05
6.41838e-05
6.15141e-05
5.87536e-05
5.59099e-05
5.29904e-05
5.00027e-05
4.69565e-05
4.386e-05
4.07221e-05
3.75521e-05
3.43586e-05
3.11518e-05
2.79408e-05
2.47345e-05
2.1544e-05
1.83778e-05
1.5246e-05
1.2159e-05
9.125e-06
6.15415e-06
3.25494e-06
4.37332e-07
-2.29112e-06
-4.92153e-06
-7.44556e-06
-9.85631e-06
-1.21455e-05
-1.43064e-05
-1.63322e-05
-1.82159e-05
-1.995e-05
-2.15296e-05
-2.29441e-05
-2.41943e-05
-2.52624e-05
-2.61521e-05
-2.68459e-05
-2.73403e-05
-2.76228e-05
-2.76848e-05
-2.75127e-05
-2.70999e-05
-2.64317e-05
-2.5504e-05
-2.42946e-05
-2.28053e-05
-2.10288e-05
-1.89385e-05
-1.65827e-05
-1.39014e-05
-1.09433e-05
-7.64661e-06
-4.42751e-06
-3.43069e-07
3.36812e-06
7.68712e-06
1.19589e-05
1.64839e-05
2.11045e-05
2.57867e-05
3.05099e-05
3.521e-05
3.98537e-05
4.44003e-05
4.88235e-05
5.30885e-05
5.71691e-05
6.10454e-05
6.46884e-05
6.80951e-05
7.12431e-05
7.41357e-05
7.67614e-05
7.91245e-05
8.12231e-05
8.30611e-05
8.46393e-05
8.59642e-05
8.70394e-05
8.78719e-05
8.84678e-05
8.88339e-05
8.89775e-05
8.89061e-05
8.86268e-05
8.81473e-05
8.74745e-05
8.66158e-05
8.55789e-05
8.43696e-05
8.29951e-05
8.14613e-05
7.97754e-05
7.79421e-05
7.59683e-05
7.38608e-05
7.1626e-05
6.92722e-05
6.68059e-05
6.4234e-05
6.15643e-05
5.88036e-05
5.59596e-05
5.30398e-05
5.00516e-05
4.70047e-05
4.39074e-05
4.07686e-05
3.75975e-05
3.44028e-05
3.11947e-05
2.79822e-05
2.47744e-05
2.15821e-05
1.84142e-05
1.52805e-05
1.21915e-05
9.15548e-06
6.18254e-06
3.28124e-06
4.61423e-07
-2.26917e-06
-4.90172e-06
-7.42796e-06
-9.84097e-06
-1.21325e-05
-1.42957e-05
-1.63238e-05
-1.821e-05
-1.99465e-05
-2.15287e-05
-2.29459e-05
-2.41989e-05
-2.52702e-05
-2.61631e-05
-2.68606e-05
-2.73586e-05
-2.7645e-05
-2.77107e-05
-2.75424e-05
-2.71332e-05
-2.64684e-05
-2.55438e-05
-2.43375e-05
-2.28505e-05
-2.10758e-05
-1.89875e-05
-1.66325e-05
-1.39537e-05
-1.09986e-05
-7.70155e-06
-4.48364e-06
-4.12453e-07
3.30384e-06
7.61774e-06
1.18908e-05
1.64161e-05
2.10381e-05
2.57254e-05
3.04537e-05
3.51601e-05
3.98104e-05
4.43639e-05
4.8794e-05
5.3066e-05
5.71536e-05
6.10364e-05
6.46856e-05
6.80975e-05
7.12502e-05
7.41467e-05
7.67761e-05
7.91424e-05
8.1244e-05
8.30849e-05
8.4666e-05
8.59935e-05
8.70713e-05
8.79061e-05
8.85043e-05
8.88726e-05
8.90182e-05
8.89487e-05
8.86711e-05
8.81932e-05
8.7522e-05
8.66647e-05
8.56289e-05
8.44207e-05
8.30472e-05
8.15142e-05
7.98289e-05
7.79962e-05
7.6023e-05
7.3916e-05
7.16817e-05
6.93282e-05
6.6862e-05
6.42901e-05
6.16202e-05
5.88592e-05
5.60148e-05
5.30943e-05
5.01055e-05
4.70578e-05
4.39595e-05
4.08195e-05
3.76471e-05
3.4451e-05
3.12412e-05
2.80269e-05
2.48173e-05
2.1623e-05
1.8453e-05
1.53171e-05
1.22258e-05
9.18742e-06
6.21207e-06
3.30834e-06
4.86015e-07
-2.24701e-06
-4.88202e-06
-7.41082e-06
-9.82639e-06
-1.21205e-05
-1.42863e-05
-1.6317e-05
-1.82058e-05
-1.99451e-05
-2.15301e-05
-2.29504e-05
-2.42063e-05
-2.52812e-05
-2.61776e-05
-2.6879e-05
-2.73811e-05
-2.76715e-05
-2.77413e-05
-2.75771e-05
-2.71717e-05
-2.65106e-05
-2.55893e-05
-2.43864e-05
-2.2902e-05
-2.11292e-05
-1.90432e-05
-1.6689e-05
-1.40128e-05
-1.10606e-05
-7.76356e-06
-4.54589e-06
-4.8918e-07
3.23283e-06
7.54166e-06
1.18162e-05
1.63422e-05
2.09662e-05
2.5659e-05
3.03932e-05
3.51067e-05
3.97642e-05
4.43255e-05
4.87633e-05
5.30432e-05
5.71387e-05
6.10287e-05
6.46848e-05
6.81025e-05
7.12605e-05
7.41614e-05
7.67949e-05
7.91649e-05
8.127e-05
8.31141e-05
8.46983e-05
8.60287e-05
8.71093e-05
8.79468e-05
8.85474e-05
8.8918e-05
8.90657e-05
8.89982e-05
8.87224e-05
8.82462e-05
8.75765e-05
8.67206e-05
8.5686e-05
8.44788e-05
8.31062e-05
8.15741e-05
7.98894e-05
7.80573e-05
7.60846e-05
7.3978e-05
7.17441e-05
6.93906e-05
6.69245e-05
6.43525e-05
6.16823e-05
5.89208e-05
5.60757e-05
5.31544e-05
5.01647e-05
4.71159e-05
4.40164e-05
4.0875e-05
3.7701e-05
3.45031e-05
3.12914e-05
2.80751e-05
2.48633e-05
2.16667e-05
1.84942e-05
1.53558e-05
1.22618e-05
9.22076e-06
6.24264e-06
3.33615e-06
5.10994e-07
-2.22482e-06
-4.86264e-06
-7.39431e-06
-9.81275e-06
-1.21097e-05
-1.42785e-05
-1.6312e-05
-1.82038e-05
-1.99461e-05
-2.15341e-05
-2.29577e-05
-2.42169e-05
-2.52956e-05
-2.61958e-05
-2.69013e-05
-2.74078e-05
-2.77027e-05
-2.77768e-05
-2.7617e-05
-2.72157e-05
-2.65587e-05
-2.5641e-05
-2.44416e-05
-2.296e-05
-2.11893e-05
-1.91057e-05
-1.67523e-05
-1.40788e-05
-1.11297e-05
-7.83294e-06
-4.61464e-06
-5.73489e-07
3.15478e-06
7.45865e-06
1.17349e-05
1.62621e-05
2.08885e-05
2.55875e-05
3.03282e-05
3.50495e-05
3.97152e-05
4.42851e-05
4.87315e-05
5.30202e-05
5.71243e-05
6.10224e-05
6.46861e-05
6.81103e-05
7.12743e-05
7.41802e-05
7.68183e-05
7.91924e-05
8.13013e-05
8.3149e-05
8.47367e-05
8.60703e-05
8.7154e-05
8.79943e-05
8.85975e-05
8.89705e-05
8.91205e-05
8.9055e-05
8.87812e-05
8.83067e-05
8.76386e-05
8.67841e-05
8.57506e-05
8.45445e-05
8.31728e-05
8.16413e-05
7.99572e-05
7.81256e-05
7.61533e-05
7.4047e-05
7.18133e-05
6.94599e-05
6.69937e-05
6.44213e-05
6.17507e-05
5.89885e-05
5.61426e-05
5.32203e-05
5.02295e-05
4.71794e-05
4.40784e-05
4.09353e-05
3.77594e-05
3.45594e-05
3.13455e-05
2.81267e-05
2.49124e-05
2.17131e-05
1.85378e-05
1.53965e-05
1.22995e-05
9.25536e-06
6.27412e-06
3.36449e-06
5.36171e-07
-2.20278e-06
-4.84378e-06
-7.37867e-06
-9.80028e-06
-1.21004e-05
-1.42724e-05
-1.63091e-05
-1.82041e-05
-1.99496e-05
-2.1541e-05
-2.29681e-05
-2.42308e-05
-2.53136e-05
-2.62178e-05
-2.69279e-05
-2.74389e-05
-2.77386e-05
-2.78175e-05
-2.76624e-05
-2.72656e-05
-2.66128e-05
-2.5699e-05
-2.45034e-05
-2.30249e-05
-2.12564e-05
-1.91754e-05
-1.68228e-05
-1.41522e-05
-1.12061e-05
-7.91e-06
-4.6903e-06
-6.6564e-07
3.06927e-06
7.36835e-06
1.16466e-05
1.61753e-05
2.08047e-05
2.55105e-05
3.02586e-05
3.49886e-05
3.96633e-05
4.42427e-05
4.86985e-05
5.2997e-05
5.71106e-05
6.10176e-05
6.46898e-05
6.81212e-05
7.12918e-05
7.42033e-05
7.68466e-05
7.92253e-05
8.13384e-05
8.31901e-05
8.47816e-05
8.61187e-05
8.72056e-05
8.8049e-05
8.8655e-05
8.90306e-05
8.9183e-05
8.91197e-05
8.88478e-05
8.83751e-05
8.77085e-05
8.68554e-05
8.58232e-05
8.46181e-05
8.32471e-05
8.17164e-05
8.00328e-05
7.82015e-05
7.62296e-05
7.41235e-05
7.18899e-05
6.95364e-05
6.70698e-05
6.4497e-05
6.18257e-05
5.90626e-05
5.62156e-05
5.32921e-05
5.03e-05
4.72483e-05
4.41454e-05
4.10003e-05
3.78222e-05
3.46199e-05
3.14033e-05
2.81818e-05
2.49646e-05
2.17622e-05
1.85837e-05
1.54391e-05
1.23387e-05
9.29106e-06
6.3063e-06
3.39315e-06
5.61298e-07
-2.18117e-06
-4.82572e-06
-7.36416e-06
-9.78927e-06
-1.20929e-05
-1.42683e-05
-1.63085e-05
-1.82069e-05
-1.9956e-05
-2.15509e-05
-2.29819e-05
-2.42483e-05
-2.53355e-05
-2.62441e-05
-2.69589e-05
-2.74749e-05
-2.77797e-05
-2.78636e-05
-2.77135e-05
-2.73214e-05
-2.66734e-05
-2.57637e-05
-2.45722e-05
-2.30969e-05
-2.13309e-05
-1.92526e-05
-1.6901e-05
-1.42332e-05
-1.12903e-05
-7.99512e-06
-4.77332e-06
-7.65963e-07
2.97593e-06
7.27043e-06
1.1551e-05
1.60816e-05
2.07145e-05
2.54279e-05
3.01841e-05
3.49237e-05
3.96083e-05
4.41982e-05
4.86645e-05
5.29736e-05
5.70978e-05
6.10146e-05
6.46961e-05
6.81355e-05
7.13134e-05
7.42312e-05
7.68801e-05
7.92639e-05
8.13818e-05
8.32378e-05
8.48334e-05
8.61744e-05
8.72648e-05
8.81115e-05
8.87204e-05
8.90988e-05
8.92537e-05
8.91926e-05
8.89228e-05
8.84519e-05
8.77869e-05
8.69352e-05
8.59041e-05
8.47e-05
8.33298e-05
8.17996e-05
8.01164e-05
7.82855e-05
7.63137e-05
7.42077e-05
7.1974e-05
6.96203e-05
6.71532e-05
6.45798e-05
6.19075e-05
5.91434e-05
5.62951e-05
5.33701e-05
5.03763e-05
4.73227e-05
4.42177e-05
4.10703e-05
3.78896e-05
3.46845e-05
3.14649e-05
2.82402e-05
2.50197e-05
2.18138e-05
1.86317e-05
1.54834e-05
1.23791e-05
9.32763e-06
6.33894e-06
3.42188e-06
5.86087e-07
-2.16028e-06
-4.80875e-06
-7.35109e-06
-9.78002e-06
-1.20875e-05
-1.42666e-05
-1.63106e-05
-1.82127e-05
-1.99656e-05
-2.15643e-05
-2.29993e-05
-2.42698e-05
-2.53615e-05
-2.62748e-05
-2.69947e-05
-2.7516e-05
-2.78261e-05
-2.79154e-05
-2.77706e-05
-2.73837e-05
-2.67406e-05
-2.58354e-05
-2.46483e-05
-2.31765e-05
-2.14131e-05
-1.93377e-05
-1.69871e-05
-1.43223e-05
-1.13826e-05
-8.08871e-06
-4.86417e-06
-8.74833e-07
2.87433e-06
7.16447e-06
1.14476e-05
1.59806e-05
2.06177e-05
2.53394e-05
3.01046e-05
3.48546e-05
3.95503e-05
4.41516e-05
4.86294e-05
5.29503e-05
5.70861e-05
6.10136e-05
6.47054e-05
6.81536e-05
7.13395e-05
7.42642e-05
7.69194e-05
7.93088e-05
8.14319e-05
8.32927e-05
8.48928e-05
8.62379e-05
8.73321e-05
8.81823e-05
8.87944e-05
8.91757e-05
8.93331e-05
8.92744e-05
8.90067e-05
8.85376e-05
8.78742e-05
8.70239e-05
8.59939e-05
8.47907e-05
8.34211e-05
8.18915e-05
8.02086e-05
7.83778e-05
7.64061e-05
7.42999e-05
7.20661e-05
6.97119e-05
6.72441e-05
6.46698e-05
6.19964e-05
5.92309e-05
5.6381e-05
5.34542e-05
5.04585e-05
4.74026e-05
4.42952e-05
4.11451e-05
3.79614e-05
3.47532e-05
3.15302e-05
2.83019e-05
2.50776e-05
2.18678e-05
1.86816e-05
1.55292e-05
1.24206e-05
9.36479e-06
6.37175e-06
3.45037e-06
6.10225e-07
-2.14046e-06
-4.79322e-06
-7.3398e-06
-9.77289e-06
-1.20844e-05
-1.42677e-05
-1.63156e-05
-1.82217e-05
-1.99787e-05
-2.15814e-05
-2.30208e-05
-2.42955e-05
-2.53921e-05
-2.63102e-05
-2.70356e-05
-2.75624e-05
-2.78783e-05
-2.79732e-05
-2.78342e-05
-2.74527e-05
-2.6815e-05
-2.59145e-05
-2.47321e-05
-2.3264e-05
-2.15034e-05
-1.94312e-05
-1.70817e-05
-1.442e-05
-1.14835e-05
-8.19119e-06
-4.96332e-06
-9.92698e-07
2.76402e-06
7.05005e-06
1.13361e-05
1.58718e-05
2.05138e-05
2.52446e-05
3.00198e-05
3.47814e-05
3.9489e-05
4.41029e-05
4.85934e-05
5.29271e-05
5.70755e-05
6.10149e-05
6.47178e-05
6.81757e-05
7.13705e-05
7.43028e-05
7.69649e-05
7.93605e-05
8.14892e-05
8.33553e-05
8.49602e-05
8.63098e-05
8.74081e-05
8.82619e-05
8.88774e-05
8.92617e-05
8.94219e-05
8.93656e-05
8.90999e-05
8.86327e-05
8.79709e-05
8.71219e-05
8.60929e-05
8.48905e-05
8.35216e-05
8.19923e-05
8.03096e-05
7.84789e-05
7.6507e-05
7.44006e-05
7.21663e-05
6.98114e-05
6.73428e-05
6.47673e-05
6.20925e-05
5.93254e-05
5.64736e-05
5.35447e-05
5.05466e-05
4.74882e-05
4.43779e-05
4.12246e-05
3.80376e-05
3.48258e-05
3.1599e-05
2.83666e-05
2.51382e-05
2.19239e-05
1.87332e-05
1.55762e-05
1.24628e-05
9.40225e-06
6.4044e-06
3.47828e-06
6.33356e-07
-2.12205e-06
-4.77948e-06
-7.33067e-06
-9.76824e-06
-1.20842e-05
-1.42718e-05
-1.6324e-05
-1.82343e-05
-1.99956e-05
-2.16026e-05
-2.30466e-05
-2.43258e-05
-2.54276e-05
-2.63509e-05
-2.7082e-05
-2.76146e-05
-2.79366e-05
-2.80376e-05
-2.79046e-05
-2.75289e-05
-2.68968e-05
-2.60014e-05
-2.4824e-05
-2.336e-05
-2.16024e-05
-1.95334e-05
-1.71852e-05
-1.45267e-05
-1.15934e-05
-8.30305e-06
-5.07127e-06
-1.12007e-06
2.64456e-06
6.92672e-06
1.12161e-05
1.57551e-05
2.04027e-05
2.51433e-05
2.99295e-05
3.47037e-05
3.94245e-05
4.40522e-05
4.85566e-05
5.29043e-05
5.70665e-05
6.10188e-05
6.4734e-05
6.82025e-05
7.14069e-05
7.43475e-05
7.70173e-05
7.94195e-05
8.15545e-05
8.34262e-05
8.50364e-05
8.63907e-05
8.74934e-05
8.83511e-05
8.89701e-05
8.93575e-05
8.95205e-05
8.94667e-05
8.92032e-05
8.87377e-05
8.80775e-05
8.72297e-05
8.62018e-05
8.50001e-05
8.36316e-05
8.21026e-05
8.04198e-05
7.8589e-05
7.66169e-05
7.451e-05
7.2275e-05
6.99192e-05
6.74494e-05
6.48725e-05
6.2196e-05
5.94269e-05
5.65729e-05
5.36415e-05
5.06407e-05
4.75793e-05
4.44658e-05
4.1309e-05
3.81181e-05
3.49022e-05
3.16711e-05
2.84342e-05
2.52011e-05
2.19819e-05
1.87862e-05
1.56241e-05
1.25055e-05
9.43964e-06
6.43653e-06
3.50522e-06
6.55088e-07
-2.10547e-06
-4.76795e-06
-7.3241e-06
-9.7665e-06
-1.20872e-05
-1.42794e-05
-1.63362e-05
-1.8251e-05
-2.00169e-05
-2.16284e-05
-2.30772e-05
-2.43612e-05
-2.54684e-05
-2.63971e-05
-2.71342e-05
-2.76731e-05
-2.80014e-05
-2.81088e-05
-2.79823e-05
-2.76127e-05
-2.69866e-05
-2.60967e-05
-2.49245e-05
-2.34649e-05
-2.17105e-05
-1.9645e-05
-1.72982e-05
-1.46428e-05
-1.17129e-05
-8.42479e-06
-5.18853e-06
-1.25749e-06
2.51546e-06
6.79398e-06
1.10872e-05
1.56298e-05
2.02839e-05
2.50353e-05
2.98336e-05
3.46215e-05
3.93568e-05
4.39995e-05
4.8519e-05
5.2882e-05
5.70594e-05
6.10258e-05
6.47542e-05
6.82343e-05
7.14493e-05
7.4399e-05
7.70771e-05
7.94867e-05
8.16284e-05
8.35061e-05
8.5122e-05
8.64814e-05