/*--------------------------------*- C++ -*----------------------------------*\
  =========                 |
  \\      /  F ield         | OpenFOAM: The Open Source CFD Toolbox
   \\    /   O peration     | Website:  https://openfoam.org
    \\  /    A nd           | Version:  9
     \\/     M anipulation  |
\*---------------------------------------------------------------------------*/
FoamFile
{
    format      ascii;
    class       surfaceScalarField;
    location    "3000";
    object      phi;
}
// * * * * * * * * * * * * * * * * * * * * * * * * * * * * * * * * * * * * * //

dimensions      [0 3 -1 0 0 0 0];

internalField   nonuniform List<scalar> 
29254
(
-7.44562e-07
-1.84722e-09
-7.45891e-07
1.32871e-09
-7.44165e-07
-1.72568e-09
-7.42035e-07
-2.13099e-09
-7.38385e-07
-3.64994e-09
-7.33161e-07
-5.22412e-09
-7.26928e-07
-6.23328e-09
-7.19396e-07
-7.53165e-09
-7.10796e-07
-8.59988e-09
-7.01261e-07
-9.53543e-09
-6.90958e-07
-1.03024e-08
-6.7989e-07
-1.10678e-08
-6.6831e-07
-1.15807e-08
-6.56403e-07
-1.19069e-08
-6.44219e-07
-1.21842e-08
-6.31987e-07
-1.22319e-08
-6.19704e-07
-1.2283e-08
-6.07548e-07
-1.2156e-08
-5.95546e-07
-1.20017e-08
-5.83868e-07
-1.16782e-08
-5.7251e-07
-1.13585e-08
-5.61526e-07
-1.09839e-08
-5.50952e-07
-1.05742e-08
-5.40891e-07
-1.00602e-08
-5.31318e-07
-9.57336e-09
-5.22212e-07
-9.10648e-09
-5.1361e-07
-8.60126e-09
-5.05485e-07
-8.12504e-09
-4.97883e-07
-7.60271e-09
-4.9081e-07
-7.07282e-09
-4.84262e-07
-6.54737e-09
-4.78237e-07
-6.02505e-09
-4.72725e-07
-5.51258e-09
-4.67719e-07
-5.00587e-09
-4.6321e-07
-4.50904e-09
-4.59142e-07
-4.06838e-09
-4.55533e-07
-3.60844e-09
-4.52362e-07
-3.17137e-09
-4.49603e-07
-2.75876e-09
-4.47173e-07
-2.42983e-09
-4.45096e-07
-2.07724e-09
-4.43415e-07
-1.6809e-09
-4.42119e-07
-1.29574e-09
-4.41253e-07
-8.65853e-10
-4.40765e-07
-4.8885e-10
-4.4064e-07
-1.2488e-10
-4.40872e-07
2.32555e-10
-4.41454e-07
5.82143e-10
-4.4238e-07
9.25644e-10
-4.43627e-07
1.2468e-09
-4.4519e-07
1.56333e-09
-4.47107e-07
1.91719e-09
-4.49363e-07
2.25534e-09
-4.5195e-07
2.58745e-09
-4.54867e-07
2.91656e-09
-4.58106e-07
3.23922e-09
-4.61669e-07
3.56294e-09
-4.65546e-07
3.87697e-09
-4.6973e-07
4.18405e-09
-4.74271e-07
4.54133e-09
-4.79111e-07
4.83997e-09
-4.84267e-07
5.15613e-09
-4.89696e-07
5.42853e-09
-4.9533e-07
5.63373e-09
-5.01213e-07
5.88359e-09
-5.07339e-07
6.12523e-09
-5.13697e-07
6.35882e-09
-5.20237e-07
6.53928e-09
-5.26976e-07
6.73965e-09
-5.33907e-07
6.93064e-09
-5.41009e-07
7.10244e-09
-5.48276e-07
7.26673e-09
-5.55687e-07
7.41095e-09
-5.63232e-07
7.54478e-09
-5.70903e-07
7.67112e-09
-5.78692e-07
7.789e-09
-5.86584e-07
7.89237e-09
-5.94589e-07
8.00491e-09
-6.02662e-07
8.07285e-09
-6.10861e-07
8.1988e-09
-6.19091e-07
8.22961e-09
-6.27427e-07
8.33617e-09
-6.35808e-07
8.38067e-09
-6.44226e-07
8.41806e-09
-6.52676e-07
8.44979e-09
-6.61143e-07
8.46702e-09
-6.69571e-07
8.42811e-09
-6.77922e-07
8.35057e-09
-6.86145e-07
8.22361e-09
-6.94218e-07
8.0721e-09
-7.01992e-07
7.7747e-09
-7.09547e-07
7.55457e-09
-7.16751e-07
7.20364e-09
-7.23248e-07
6.49692e-09
-7.29373e-07
6.12564e-09
-7.3444e-07
5.0661e-09
-7.38382e-07
3.94218e-09
-7.41215e-07
2.83331e-09
4.98214e-09
-2.29757e-06
-7.5194e-09
-2.30043e-06
4.1885e-09
-2.30057e-06
-1.57606e-09
-2.302e-06
-7.11145e-10
-2.30155e-06
-4.09193e-09
-2.2974e-06
-9.37945e-09
-2.29093e-06
-1.26986e-08
-2.2811e-06
-1.73608e-08
-2.2682e-06
-2.14995e-08
-2.2525e-06
-2.52353e-08
-2.23436e-06
-2.84508e-08
-2.21379e-06
-3.1633e-08
-2.19134e-06
-3.40362e-08
-2.16739e-06
-3.58518e-08
-2.14211e-06
-3.74607e-08
-2.11608e-06
-3.82688e-08
-2.0893e-06
-3.90614e-08
-2.06228e-06
-3.91757e-08
-2.03515e-06
-3.91299e-08
-2.00835e-06
-3.84829e-08
-1.98195e-06
-3.77581e-08
-1.95612e-06
-3.68112e-08
-1.931e-06
-3.56895e-08
-1.90686e-06
-3.42013e-08
-1.88371e-06
-3.27241e-08
-1.86161e-06
-3.1212e-08
-1.84064e-06
-2.95654e-08
-1.82082e-06
-2.79472e-08
-1.80226e-06
-2.61616e-08
-1.78503e-06
-2.43087e-08
-1.76913e-06
-2.24393e-08
-1.75461e-06
-2.05506e-08
-1.74145e-06
-1.86683e-08
-1.72967e-06
-1.67857e-08
-1.71926e-06
-1.4925e-08
-1.7101e-06
-1.32288e-08
-1.70223e-06
-1.1475e-08
-1.69561e-06
-9.79437e-09
-1.69015e-06
-8.2148e-09
-1.68568e-06
-6.90165e-09
-1.68222e-06
-5.53232e-09
-1.67984e-06
-4.06187e-09
-1.67856e-06
-2.5825e-09
-1.67847e-06
-9.5344e-10
-1.67948e-06
5.22932e-10
-1.68155e-06
1.94459e-09
-1.68466e-06
3.34475e-09
-1.68879e-06
4.70672e-09
-1.6939e-06
6.03352e-09
-1.69991e-06
7.26131e-09
-1.7068e-06
8.45646e-09
-1.71466e-06
9.77181e-09
-1.72344e-06
1.1041e-08
-1.73314e-06
1.22795e-08
-1.74371e-06
1.34925e-08
-1.75513e-06
1.46605e-08
-1.76738e-06
1.58139e-08
-1.78042e-06
1.69103e-08
-1.7942e-06
1.79623e-08
-1.80879e-06
1.9135e-08
-1.82405e-06
2.0102e-08
-1.83995e-06
2.10551e-08
-1.8564e-06
2.18774e-08
-1.87321e-06
2.24488e-08
-1.89043e-06
2.3103e-08
-1.90801e-06
2.36969e-08
-1.92586e-06
2.42161e-08
-1.94385e-06
2.45274e-08
-1.96196e-06
2.48485e-08
-1.98013e-06
2.51032e-08
-1.99828e-06
2.52478e-08
-2.01634e-06
2.53283e-08
-2.03423e-06
2.52974e-08
-2.05188e-06
2.51977e-08
-2.06925e-06
2.50453e-08
-2.0863e-06
2.48324e-08
-2.10294e-06
2.4532e-08
-2.11918e-06
2.42457e-08
-2.13488e-06
2.3779e-08
-2.15019e-06
2.35049e-08
-2.16483e-06
2.28681e-08
-2.17899e-06
2.24989e-08
-2.19254e-06
2.19252e-08
-2.20546e-06
2.13471e-08
-2.21777e-06
2.07574e-08
-2.22943e-06
2.01198e-08
-2.24029e-06
1.92966e-08
-2.25036e-06
1.84162e-08
-2.25952e-06
1.73815e-08
-2.26778e-06
1.63293e-08
-2.27478e-06
1.47797e-08
-2.28078e-06
1.35516e-08
-2.28576e-06
1.21838e-08
-2.28917e-06
9.90395e-09
-2.29211e-06
9.07117e-09
-2.29328e-06
6.24002e-09
-2.29396e-06
4.61877e-09
-2.29543e-06
4.297e-09
1.27939e-08
-3.96758e-06
-2.02903e-08
-3.97239e-06
9.00012e-09
-3.97958e-06
5.61415e-09
-3.99326e-06
1.29599e-08
-4.00727e-06
9.91783e-09
-4.01675e-06
1.01868e-10
-4.02365e-06
-5.79707e-09
-4.02589e-06
-1.51213e-08
-4.02348e-06
-2.39107e-08
-4.01665e-06
-3.20643e-08
-4.00582e-06
-3.92775e-08
-3.99095e-06
-4.65066e-08
-3.9727e-06
-5.22871e-08
-3.95158e-06
-5.69672e-08
-3.92778e-06
-6.12659e-08
-3.90212e-06
-6.39257e-08
-3.87457e-06
-6.66079e-08
-3.84595e-06
-6.78034e-08
-3.81646e-06
-6.86119e-08
-3.78678e-06
-6.81674e-08
-3.75707e-06
-6.74646e-08
-3.72762e-06
-6.62673e-08
-3.69865e-06
-6.46535e-08
-3.67059e-06
-6.22689e-08
-3.64351e-06
-5.98019e-08
-3.6176e-06
-5.71182e-08
-3.59303e-06
-5.4132e-08
-3.56988e-06
-5.11002e-08
-3.54835e-06
-4.76937e-08
-3.52858e-06
-4.40829e-08
-3.51064e-06
-4.03771e-08
-3.49462e-06
-3.65713e-08
-3.48056e-06
-3.27295e-08
-3.4685e-06
-2.88429e-08
-3.45845e-06
-2.49706e-08
-3.4503e-06
-2.13871e-08
-3.44409e-06
-1.76802e-08
-3.43977e-06
-1.4115e-08
-3.43721e-06
-1.07693e-08
-3.43617e-06
-7.95087e-09
-3.43664e-06
-5.05675e-09
-3.43866e-06
-2.04492e-09
-3.44228e-06
1.04153e-09
-3.44768e-06
4.44857e-09
-3.45475e-06
7.59041e-09
-3.46342e-06
1.06112e-08
-3.47366e-06
1.35858e-08
-3.48541e-06
1.64596e-08
-3.49861e-06
1.92335e-08
-3.51311e-06
2.17591e-08
-3.52882e-06
2.41673e-08
-3.54583e-06
2.67807e-08
-3.56411e-06
2.93164e-08
-3.5836e-06
3.17735e-08
-3.60425e-06
3.41388e-08
-3.62595e-06
3.63611e-08
-3.64864e-06
3.85062e-08
-3.67221e-06
4.04804e-08
-3.69656e-06
4.23137e-08
-3.72173e-06
4.43009e-08
-3.74746e-06
4.58333e-08
-3.77362e-06
4.72138e-08
-3.80007e-06
4.83288e-08
-3.8265e-06
4.88781e-08
-3.85287e-06
4.94802e-08
-3.87906e-06
4.98806e-08
-3.90489e-06
5.00448e-08
-3.93008e-06
4.97221e-08
-3.95455e-06
4.93201e-08
-3.97816e-06
4.87095e-08
-4.00071e-06
4.77974e-08
-4.02207e-06
4.66872e-08
-4.04205e-06
4.52834e-08
-4.06054e-06
4.36868e-08
-4.07744e-06
4.1945e-08
-4.09265e-06
4.00402e-08
-4.10602e-06
3.79006e-08
-4.11756e-06
3.57899e-08
-4.12705e-06
3.32688e-08
-4.13473e-06
3.11866e-08
-4.14017e-06
2.83006e-08
-4.14371e-06
2.60386e-08
-4.14519e-06
2.34086e-08
-4.1447e-06
2.08571e-08
-4.14229e-06
1.83479e-08
-4.13798e-06
1.58094e-08
-4.13164e-06
1.29531e-08
-4.12339e-06
1.01641e-08
-4.11316e-06
7.15831e-09
-4.10113e-06
4.29772e-09
-4.08685e-06
4.99905e-10
-4.07092e-06
-2.37748e-09
-4.05384e-06
-4.89458e-09
-4.03521e-06
-8.73434e-09
-4.01736e-06
-8.77294e-09
-3.99902e-06
-1.21024e-08
-3.98409e-06
-1.03112e-08
-3.97541e-06
-4.38365e-09
1.77358e-08
-5.70162e-06
-4.27745e-08
-5.70795e-06
1.53313e-08
-5.7239e-06
2.15664e-08
-5.75375e-06
4.28125e-08
-5.78768e-06
4.38421e-08
-5.81747e-06
2.9891e-08
-5.84539e-06
2.21286e-08
-5.86819e-06
7.67425e-09
-5.88544e-06
-6.65997e-09
-5.89724e-06
-2.02693e-08
-5.90401e-06
-3.24994e-08
-5.90568e-06
-4.48356e-08
-5.90285e-06
-5.51243e-08
-5.89605e-06
-6.37685e-08
-5.88542e-06
-7.1892e-08
-5.87195e-06
-7.73973e-08
-5.85548e-06
-8.30759e-08
-5.8371e-06
-8.61868e-08
-5.81706e-06
-8.86498e-08
-5.79613e-06
-8.90966e-08
-5.7746e-06
-8.89964e-08
-5.75281e-06
-8.80574e-08
-5.73105e-06
-8.64086e-08
-5.70976e-06
-8.35631e-08
-5.68918e-06
-8.03784e-08
-5.66964e-06
-7.66645e-08
-5.65131e-06
-7.24561e-08
-5.63443e-06
-6.79834e-08
-5.61921e-06
-6.29177e-08
-5.60584e-06
-5.74457e-08
-5.59448e-06
-5.17398e-08
-5.58526e-06
-4.57899e-08
-5.57827e-06
-3.97193e-08
-5.57359e-06
-3.35211e-08
-5.57126e-06
-2.73011e-08
-5.57121e-06
-2.14421e-08
-5.57348e-06
-1.54124e-08
-5.578e-06
-9.59318e-09
-5.58463e-06
-4.1375e-09
-5.59314e-06
5.55269e-10
-5.60339e-06
5.20093e-09
-5.61533e-06
9.88895e-09
-5.62905e-06
1.47671e-08
-5.64474e-06
2.014e-08
-5.66237e-06
2.52148e-08
-5.68185e-06
3.00872e-08
-5.70314e-06
3.48846e-08
-5.72616e-06
3.94762e-08
-5.7508e-06
4.38776e-08
-5.77685e-06
4.78065e-08
-5.80411e-06
5.14264e-08
-5.8326e-06
5.52689e-08
-5.8623e-06
5.90165e-08
-5.89316e-06
6.26313e-08
-5.92504e-06
6.60255e-08
-5.95778e-06
6.90956e-08
-5.99123e-06
7.1962e-08
-6.02521e-06
7.44591e-08
-6.05954e-06
7.66365e-08
-6.09409e-06
7.88505e-08
-6.12858e-06
8.03252e-08
-6.16272e-06
8.136e-08
-6.19633e-06
8.19387e-08
-6.22908e-06
8.16267e-08
-6.26075e-06
8.11452e-08
-6.29107e-06
8.02027e-08
-6.31977e-06
7.87499e-08
-6.3465e-06
7.6452e-08
-6.37102e-06
7.3838e-08
-6.39309e-06
7.07802e-08
-6.41242e-06
6.71198e-08
-6.42878e-06
6.30532e-08
-6.44192e-06
5.84201e-08
-6.45165e-06
5.34133e-08
-6.45784e-06
4.8135e-08
-6.46035e-06
4.25522e-08
-6.45897e-06
3.65216e-08
-6.45375e-06
3.05749e-08
-6.44441e-06
2.39206e-08
-6.43133e-06
1.81159e-08
-6.41394e-06
1.09044e-08
-6.39279e-06
4.89196e-09
-6.36775e-06
-1.63053e-09
-6.33909e-06
-7.809e-09
-6.30695e-06
-1.37845e-08
-6.27149e-06
-1.96587e-08
-6.23262e-06
-2.5911e-08
-6.19077e-06
-3.16869e-08
-6.14594e-06
-3.76728e-08
-6.09858e-06
-4.30639e-08
-6.04826e-06
-4.98249e-08
-5.99594e-06
-5.46979e-08
-5.94296e-06
-5.7867e-08
-5.88926e-06
-6.24413e-08
-5.83877e-06
-5.92562e-08
-5.79059e-06
-6.02864e-08
-5.75169e-06
-4.92067e-08
-5.72627e-06
-2.98062e-08
1.55656e-08
-7.38609e-06
-7.65528e-08
-7.39294e-06
2.21822e-08
-7.41685e-06
4.54805e-08
-7.4618e-06
8.77632e-08
-7.51485e-06
9.68918e-08
-7.56493e-06
7.9961e-08
-7.61445e-06
7.16581e-08
-7.65913e-06
5.23497e-08
-7.69805e-06
3.2255e-08
-7.73106e-06
1.27424e-08
-7.75853e-06
-5.02164e-09
-7.78024e-06
-2.31324e-08
-7.79678e-06
-3.85845e-08
-7.80873e-06
-5.18161e-08
-7.81614e-06
-6.44863e-08
-7.82009e-06
-7.34405e-08
-7.82023e-06
-8.29392e-08
-7.81783e-06
-8.85825e-08
-7.81317e-06
-9.33093e-08
-7.8071e-06
-9.51721e-08
-7.79992e-06
-9.61806e-08
-7.79199e-06
-9.59812e-08
-7.78363e-06
-9.47654e-08
-7.77532e-06
-9.18815e-08
-7.76734e-06
-8.83521e-08
-7.76009e-06
-8.39173e-08
-7.75379e-06
-7.87604e-08
-7.74871e-06
-7.30606e-08
-7.74512e-06
-6.65017e-08
-7.74327e-06
-5.92963e-08
-7.74334e-06
-5.16757e-08
-7.74551e-06
-4.36203e-08
-7.7499e-06
-3.53253e-08
-7.75663e-06
-2.67884e-08
-7.76577e-06
-1.81675e-08
-7.77725e-06
-9.95905e-09
-7.79115e-06
-1.51773e-09
-7.80742e-06
6.67702e-09
-7.82597e-06
1.44122e-08
-7.84656e-06
2.11512e-08
-7.86903e-06
2.76662e-08
-7.89316e-06
3.40171e-08
-7.91904e-06
4.06514e-08
-7.9469e-06
4.80046e-08
-7.97675e-06
5.50575e-08
-8.00849e-06
6.18309e-08
-8.04211e-06
6.8499e-08
-8.07746e-06
7.48355e-08
-8.11449e-06
8.08997e-08
-8.15292e-06
8.62409e-08
-8.19246e-06
9.09647e-08
-8.23297e-06
9.57749e-08
-8.27441e-06
1.00461e-07
-8.31675e-06
1.04967e-07
-8.35979e-06
1.09065e-07
-8.40327e-06
1.12575e-07
-8.44698e-06
1.15682e-07
-8.49066e-06
1.18133e-07
-8.53402e-06
1.19997e-07
-8.57685e-06
1.21686e-07
-8.61878e-06
1.22247e-07
-8.65939e-06
1.21973e-07
-8.69841e-06
1.20963e-07
-8.73543e-06
1.18645e-07
-8.77011e-06
1.15819e-07
-8.80206e-06
1.12152e-07
-8.8309e-06
1.0759e-07
-8.85616e-06
1.01712e-07
-8.87749e-06
9.51749e-08
-8.89457e-06
8.78575e-08
-8.90699e-06
7.95399e-08
-8.91447e-06
7.05358e-08
-8.91666e-06
6.06089e-08
-8.91333e-06
5.00836e-08
-8.90433e-06
3.91295e-08
-8.88948e-06
2.77012e-08
-8.86852e-06
1.55615e-08
-8.84152e-06
3.58059e-09
-8.80817e-06
-9.43622e-09
-8.76905e-06
-2.10008e-08
-8.72345e-06
-3.46929e-08
-8.67217e-06
-4.63867e-08
-8.61511e-06
-5.86932e-08
-8.5527e-06
-7.02242e-08
-8.48522e-06
-8.12591e-08
-8.41296e-06
-9.19192e-08
-8.33596e-06
-1.02912e-07
-8.2549e-06
-1.12744e-07
-8.16995e-06
-1.22628e-07
-8.08184e-06
-1.31176e-07
-7.99024e-06
-1.4142e-07
-7.89665e-06
-1.48289e-07
-7.80318e-06
-1.5134e-07
-7.71019e-06
-1.55428e-07
-7.62328e-06
-1.4617e-07
-7.54204e-06
-1.41519e-07
-7.47626e-06
-1.14988e-07
-7.4315e-06
-7.45708e-08
3.93281e-09
-8.93707e-06
-1.23131e-07
-8.9425e-06
2.76098e-08
-8.97163e-06
7.46104e-08
-9.02701e-06
1.43149e-07
-9.09403e-06
1.63905e-07
-9.15955e-06
1.45484e-07
-9.22594e-06
1.38046e-07
-9.28815e-06
1.14558e-07
-9.34502e-06
8.91257e-08
-9.3963e-06
6.4019e-08
-9.44209e-06
4.07751e-08
-9.48197e-06
1.67439e-08
-9.51637e-06
-4.18484e-09
-9.54591e-06
-2.22764e-08
-9.57059e-06
-3.98e-08
-9.59155e-06
-5.24859e-08
-9.60821e-06
-6.6283e-08
-9.62196e-06
-7.48276e-08
-9.6331e-06
-8.21666e-08
-9.64246e-06
-8.5811e-08
-9.6504e-06
-8.82412e-08
-9.65728e-06
-8.91019e-08
-9.6634e-06
-8.86491e-08
-9.66921e-06
-8.60671e-08
-9.67507e-06
-8.24947e-08
-9.68138e-06
-7.76058e-08
-9.6884e-06
-7.1747e-08
-9.69649e-06
-6.49688e-08
-9.70589e-06
-5.71021e-08
-9.71686e-06
-4.83249e-08
-9.72961e-06
-3.89291e-08
-9.74435e-06
-2.88768e-08
-9.76124e-06
-1.84354e-08
-9.7804e-06
-7.6243e-09
-9.80192e-06
3.35333e-09
-9.82585e-06
1.39661e-08
-9.85227e-06
2.48989e-08
-9.88117e-06
3.55776e-08
-9.91251e-06
4.57565e-08
-9.94616e-06
5.48007e-08
-9.98188e-06
6.33893e-08
-1.00193e-05
7.14154e-08
-1.00583e-05
7.96693e-08
-1.00992e-05
8.88552e-08
-1.01419e-05
9.7843e-08
-1.01866e-05
1.06498e-07
-1.02331e-05
1.15016e-07
-1.02813e-05
1.23058e-07
-1.03312e-05
1.30774e-07
-1.03826e-05
1.37583e-07
-1.04352e-05
1.43575e-07
-1.04889e-05
1.49508e-07
-1.05435e-05
1.55024e-07
-1.05986e-05
1.60095e-07
-1.0654e-05
1.64509e-07
-1.07094e-05
1.6798e-07
-1.07645e-05
1.70775e-07
-1.08189e-05
1.72528e-07
-1.08723e-05
1.7334e-07
-1.09242e-05
1.73587e-07
-1.09742e-05
1.7229e-07
-1.10219e-05
1.69665e-07
-1.10669e-05
1.65924e-07
-1.11086e-05
1.60403e-07
-1.11467e-05
1.53881e-07
-1.11806e-05
1.46017e-07
-1.12097e-05
1.36769e-07
-1.12337e-05
1.25674e-07
-1.1252e-05
1.13434e-07
-1.12641e-05
9.99871e-08
-1.12696e-05
8.50461e-08
-1.12681e-05
6.90831e-08
-1.12593e-05
5.17662e-08
-1.12428e-05
3.358e-08
-1.12185e-05
1.47949e-08
-1.11861e-05
-4.65325e-09
-1.11454e-05
-2.51021e-08
-1.10966e-05
-4.52537e-08
-1.10392e-05
-6.68049e-08
-1.09741e-05
-8.6157e-08
-1.09003e-05
-1.0844e-07
-1.0819e-05
-1.27733e-07
-1.073e-05
-1.47683e-07
-1.0634e-05
-1.66266e-07
-1.05313e-05
-1.83945e-07
-1.04224e-05
-2.00827e-07
-1.03074e-05
-2.17865e-07
-1.01874e-05
-2.32768e-07
-1.00626e-05
-2.4741e-07
-9.93407e-06
-2.59706e-07
-9.80162e-06
-2.7387e-07
-9.66719e-06
-2.82718e-07
-9.53367e-06
-2.84862e-07
-9.40192e-06
-2.87183e-07
-9.27896e-06
-2.69126e-07
-9.16492e-06
-2.55557e-07
-9.0718e-06
-2.08112e-07
-9.00655e-06
-1.39817e-07
-1.89731e-08
-1.03521e-05
-1.83653e-07
-1.03539e-05
2.93393e-08
-1.03851e-05
1.05826e-07
-1.04464e-05
2.04428e-07
-1.05223e-05
2.39827e-07
-1.05984e-05
2.21608e-07
-1.06767e-05
2.16372e-07
-1.07517e-05
1.89514e-07
-1.0822e-05
1.59408e-07
-1.08873e-05
1.29301e-07
-1.09475e-05
1.01009e-07
-1.10021e-05
7.13302e-08
-1.10513e-05
4.50041e-08
-1.10956e-05
2.20906e-08
-1.11352e-05
-2.45788e-10
-1.11712e-05
-1.65282e-08
-1.12029e-05
-3.44938e-08
-1.12319e-05
-4.58693e-08
-1.12581e-05
-5.59363e-08
-1.12825e-05
-6.14767e-08
-1.13053e-05
-6.54545e-08
-1.13268e-05
-6.75067e-08
-1.13475e-05
-6.79796e-08
-1.13677e-05
-6.58736e-08
-1.13878e-05
-6.24231e-08
-1.14082e-05
-5.72319e-08
-1.14291e-05
-5.08246e-08
-1.1451e-05
-4.30837e-08
-1.1474e-05
-3.40308e-08
-1.14986e-05
-2.37967e-08
-1.15248e-05
-1.27256e-08
-1.15529e-05
-7.66627e-10
-1.15831e-05
1.17579e-08
-1.16155e-05
2.48319e-08
-1.16504e-05
3.81891e-08
-1.16877e-05
5.12748e-08
-1.17276e-05
6.47821e-08
-1.177e-05
7.8061e-08
-1.18151e-05
9.08398e-08
-1.18628e-05
1.02436e-07
-1.19128e-05
1.13454e-07
-1.1965e-05
1.23608e-07
-1.20191e-05
1.33756e-07
-1.2075e-05
1.44735e-07
-1.21327e-05
1.55551e-07
-1.21922e-05
1.66008e-07
-1.22535e-05
1.76346e-07
-1.23165e-05
1.85982e-07
-1.23809e-05
1.95256e-07
-1.24469e-05
2.03516e-07
-1.25141e-05
2.10817e-07
-1.25824e-05
2.17839e-07
-1.26514e-05
2.23952e-07
-1.27205e-05
2.29187e-07
-1.27894e-05
2.33449e-07
-1.28577e-05
2.36317e-07
-1.29251e-05
2.38142e-07
-1.2991e-05
2.38442e-07
-1.3055e-05
2.37356e-07
-1.31166e-05
2.35196e-07
-1.31754e-05
2.31001e-07
-1.32306e-05
2.24882e-07
-1.32818e-05
2.1718e-07
-1.33286e-05
2.0714e-07
-1.33702e-05
1.95488e-07
-1.3406e-05
1.81881e-07
-1.34356e-05
1.66314e-07
-1.34582e-05
1.48288e-07
-1.34733e-05
1.28525e-07
-1.34804e-05
1.07054e-07
-1.34788e-05
8.35256e-08
-1.34683e-05
5.85802e-08
-1.34484e-05
3.18043e-08
-1.34187e-05
3.86133e-09
-1.3379e-05
-2.48414e-08
-1.33293e-05
-5.43716e-08
-1.32692e-05
-8.52126e-08
-1.31988e-05
-1.15598e-07
-1.31179e-05
-1.47752e-07
-1.30272e-05
-1.76865e-07
-1.29259e-05
-2.09744e-07
-1.28151e-05
-2.38496e-07
-1.26949e-05
-2.67879e-07
-1.2566e-05
-2.95144e-07
-1.2429e-05
-3.20956e-07
-1.22845e-05
-3.45401e-07
-1.21327e-05
-3.69663e-07
-1.19749e-05
-3.90567e-07
-1.18116e-05
-4.10716e-07
-1.1644e-05
-4.27243e-07
-1.14723e-05
-4.45626e-07
-1.12987e-05
-4.56328e-07
-1.11267e-05
-4.56784e-07
-1.09579e-05
-4.56046e-07
-1.08003e-05
-4.26748e-07
-1.06545e-05
-4.01289e-07
-1.05344e-05
-3.28256e-07
-1.04482e-05
-2.26002e-07
-5.44939e-08
-1.16542e-05
-2.58124e-07
-1.16517e-05
2.68604e-08
-1.16838e-05
1.37922e-07
-1.17473e-05
2.67912e-07
-1.18282e-05
3.20658e-07
-1.19114e-05
3.04882e-07
-1.19983e-05
3.03193e-07
-1.20828e-05
2.74022e-07
-1.21634e-05
2.4001e-07
-1.22397e-05
2.05658e-07
-1.23117e-05
1.72982e-07
-1.23788e-05
1.38451e-07
-1.24413e-05
1.07468e-07
-1.24995e-05
8.02856e-08
-1.25531e-05
5.34159e-08
-1.26035e-05
3.3799e-08
-1.26498e-05
1.18847e-08
-1.26935e-05
-2.17891e-09
-1.27345e-05
-1.49329e-08
-1.27736e-05
-2.23633e-08
-1.28112e-05
-2.78722e-08
-1.28476e-05
-3.11315e-08
-1.2883e-05
-3.25604e-08
-1.29179e-05
-3.09906e-08
-1.29526e-05
-2.77301e-08
-1.29875e-05
-2.23377e-08
-1.30229e-05
-1.54634e-08
-1.30591e-05
-6.80208e-09
-1.30965e-05
3.35865e-09
-1.31353e-05
1.49832e-08
-1.31757e-05
2.76775e-08
-1.3218e-05
4.15207e-08
-1.32624e-05
5.61193e-08
-1.3309e-05
7.14649e-08
-1.3358e-05
8.7231e-08
-1.34096e-05
1.02855e-07
-1.34638e-05
1.18988e-07
-1.35207e-05
1.34943e-07
-1.35803e-05
1.50437e-07
-1.36426e-05
1.64788e-07
-1.37078e-05
1.78559e-07
-1.37756e-05
1.91451e-07
-1.3846e-05
2.04199e-07
-1.39186e-05
2.17281e-07
-1.39929e-05
2.29849e-07
-1.40689e-05
2.42017e-07
-1.41467e-05
2.54122e-07
-1.42258e-05
2.65157e-07
-1.43063e-05
2.7571e-07
-1.4388e-05
2.85177e-07
-1.44706e-05
2.93482e-07
-1.45539e-05
3.01135e-07
-1.46373e-05
3.07356e-07
-1.47204e-05
3.12252e-07
-1.48027e-05
3.1577e-07
-1.48837e-05
3.17349e-07
-1.4963e-05
3.17421e-07
-1.504e-05
3.15379e-07
-1.5114e-05
3.11411e-07
-1.51846e-05
3.05738e-07
-1.52511e-05
2.97503e-07
-1.53129e-05
2.86703e-07
-1.53694e-05
2.7372e-07
-1.542e-05
2.57762e-07
-1.5464e-05
2.39486e-07
-1.55007e-05
2.18557e-07
-1.55294e-05
1.95008e-07
-1.55495e-05
1.6835e-07
-1.55602e-05
1.39269e-07
-1.55611e-05
1.07916e-07
-1.55514e-05
7.38975e-08
-1.55309e-05
3.80426e-08
-1.5499e-05
-1.48618e-10
-1.54553e-05
-3.97836e-08
-1.53998e-05
-8.03364e-08
-1.53323e-05
-1.21889e-07
-1.52525e-05
-1.65052e-07
-1.51605e-05
-2.07572e-07
-1.5056e-05
-2.5221e-07
-1.494e-05
-2.92904e-07
-1.48116e-05
-3.38171e-07
-1.4672e-05
-3.7807e-07
-1.45214e-05
-4.18469e-07
-1.43607e-05
-4.55861e-07
-1.41905e-05
-4.91097e-07
-1.40117e-05
-5.2425e-07
-1.38246e-05
-5.5671e-07
-1.36309e-05
-5.84344e-07
-1.3431e-05
-6.10557e-07
-1.32266e-05
-6.31667e-07
-1.30178e-05
-6.54395e-07
-1.28074e-05
-6.66718e-07
-1.25995e-05
-6.64711e-07
-1.23959e-05
-6.59645e-07
-1.22057e-05
-6.17006e-07
-1.203e-05
-5.76952e-07
-1.18839e-05
-4.74345e-07
-1.17772e-05
-3.32661e-07
-1.0305e-07
-1.28646e-05
-3.44934e-07
-1.2857e-05
1.92297e-08
-1.28886e-05
1.69521e-07
-1.29528e-05
3.32127e-07
-1.30369e-05
4.04714e-07
-1.3126e-05
3.94024e-07
-1.32206e-05
3.97766e-07
-1.33142e-05
3.67646e-07
-1.34048e-05
3.30612e-07
-1.3492e-05
2.92879e-07
-1.35756e-05
2.56566e-07
-1.36552e-05
2.18e-07
-1.37308e-05
1.83054e-07
-1.38026e-05
1.52139e-07
-1.38703e-05
1.21108e-07
-1.3935e-05
9.84464e-08
-1.39958e-05
7.27494e-08
-1.40541e-05
5.61216e-08
-1.41099e-05
4.08374e-08
-1.41639e-05
3.16284e-08
-1.42164e-05
2.46771e-08
-1.42678e-05
2.02629e-08
-1.43183e-05
1.78984e-08
-1.43682e-05
1.89314e-08
-1.44179e-05
2.19857e-08
-1.44678e-05
2.75493e-08
-1.45181e-05
3.48509e-08
-1.45693e-05
4.44064e-08
-1.46216e-05
5.56378e-08
-1.46753e-05
6.86199e-08
-1.47305e-05
8.291e-08
-1.47876e-05
9.86263e-08
-1.48468e-05
1.15284e-07
-1.49082e-05
1.32889e-07
-1.4972e-05
1.51048e-07
-1.50383e-05
1.69208e-07
-1.51073e-05
1.87979e-07
-1.5179e-05
2.06636e-07
-1.52535e-05
2.24912e-07
-1.53308e-05
2.42117e-07
-1.54111e-05
2.58788e-07
-1.54942e-05
2.74584e-07
-1.55802e-05
2.90181e-07
-1.56686e-05
3.0569e-07
-1.57592e-05
3.20478e-07
-1.58518e-05
3.34627e-07
-1.59461e-05
3.48425e-07
-1.60416e-05
3.60643e-07
-1.6138e-05
3.72071e-07
-1.62351e-05
3.82305e-07
-1.63328e-05
3.9114e-07
-1.64305e-05
3.9887e-07
-1.65278e-05
4.04631e-07
-1.66241e-05
4.08565e-07
-1.67189e-05
4.10627e-07
-1.68117e-05
4.10125e-07
-1.69018e-05
4.07542e-07
-1.69886e-05
4.02134e-07
-1.70714e-05
3.94187e-07
-1.71495e-05
3.8384e-07
-1.72223e-05
3.70347e-07
-1.72892e-05
3.53573e-07
-1.73494e-05
3.33937e-07
-1.74023e-05
3.1062e-07
-1.7447e-05
2.84205e-07
-1.74828e-05
2.54372e-07
-1.7509e-05
2.21199e-07
-1.75249e-05
1.84217e-07
-1.75297e-05
1.4408e-07
-1.75228e-05
1.0107e-07
-1.75037e-05
5.47704e-08
-1.74719e-05
6.21892e-09
-1.74269e-05
-4.51679e-08
-1.73684e-05
-9.82709e-08
-1.72962e-05
-1.52466e-07
-1.72103e-05
-2.07831e-07
-1.71102e-05
-2.65104e-07
-1.69963e-05
-3.21482e-07
-1.68683e-05
-3.80258e-07
-1.6727e-05
-4.34144e-07
-1.65719e-05
-4.9332e-07
-1.64041e-05
-5.45823e-07
-1.6224e-05
-5.9857e-07
-1.60326e-05
-6.47307e-07
-1.58307e-05
-6.93034e-07
-1.56191e-05
-7.3581e-07
-1.53986e-05
-7.77199e-07
-1.51709e-05
-8.12103e-07
-1.49367e-05
-8.44723e-07
-1.46978e-05
-8.70581e-07
-1.44546e-05
-8.97581e-07
-1.42101e-05
-9.11185e-07
-1.39689e-05
-9.05963e-07
-1.37332e-05
-8.95298e-07
-1.35127e-05
-8.37529e-07
-1.33093e-05
-7.80355e-07
-1.31388e-05
-6.44787e-07
-1.30127e-05
-4.58766e-07
-1.64341e-07
-1.40055e-05
-4.41231e-07
-1.39951e-05
8.78432e-09
-1.40285e-05
2.03007e-07
-1.40936e-05
3.97232e-07
-1.41808e-05
4.91864e-07
-1.42759e-05
4.89147e-07
-1.43781e-05
4.99953e-07
-1.44809e-05
4.70431e-07
-1.45816e-05
4.31341e-07
-1.46799e-05
3.91196e-07
-1.47754e-05
3.51982e-07
-1.48674e-05
3.10071e-07
-1.4956e-05
2.71636e-07
-1.50413e-05
2.37434e-07
-1.51229e-05
2.02668e-07
-1.52017e-05
1.77283e-07
-1.5277e-05
1.4809e-07
-1.535e-05
1.29099e-07
-1.54207e-05
1.11496e-07
-1.54897e-05
1.00648e-07
-1.55574e-05
9.2375e-08
-1.5624e-05
8.68957e-08
-1.56898e-05
8.36618e-08
-1.57551e-05
8.42195e-08
-1.58202e-05
8.70758e-08
-1.58854e-05
9.27977e-08
-1.59511e-05
1.00518e-07
-1.60176e-05
1.10923e-07
-1.60852e-05
1.23199e-07
-1.61541e-05
1.37508e-07
-1.62245e-05
1.53353e-07
-1.62968e-05
1.70898e-07
-1.6371e-05
1.89562e-07
-1.64475e-05
2.09371e-07
-1.65263e-05
2.29869e-07
-1.66077e-05
2.5052e-07
-1.66916e-05
2.71888e-07
-1.67781e-05
2.93215e-07
-1.68675e-05
3.14246e-07
-1.69596e-05
3.34265e-07
-1.70546e-05
3.5379e-07
-1.71524e-05
3.72379e-07
-1.72529e-05
3.90637e-07
-1.73557e-05
4.0855e-07
-1.7461e-05
4.2571e-07
-1.75682e-05
4.41854e-07
-1.7677e-05
4.57214e-07
-1.7787e-05
4.70641e-07
-1.78979e-05
4.82962e-07
-1.80092e-05
4.93636e-07
-1.81205e-05
5.0243e-07
-1.82313e-05
5.09635e-07
-1.83409e-05
5.14285e-07
-1.84489e-05
5.16543e-07
-1.85546e-05
5.16357e-07
-1.86574e-05
5.12905e-07
-1.87566e-05
5.06709e-07
-1.88513e-05
4.96856e-07
-1.89409e-05
4.83789e-07
-1.90247e-05
4.67621e-07
-1.9102e-05
4.47621e-07
-1.91719e-05
4.2356e-07
-1.92339e-05
3.9589e-07
-1.9287e-05
3.63741e-07
-1.93305e-05
3.27694e-07
-1.93635e-05
2.87416e-07
-1.93854e-05
2.43055e-07
-1.93953e-05
1.94148e-07
-1.93926e-05
1.41329e-07
-1.93765e-05
8.50294e-08
-1.93466e-05
2.48009e-08
-1.93023e-05
-3.80717e-08
-1.92432e-05
-1.0424e-07
-1.91691e-05
-1.72415e-07
-1.90797e-05
-2.41834e-07
-1.8975e-05
-3.12573e-07
-1.88546e-05
-3.85506e-07
-1.87188e-05
-4.57271e-07
-1.85674e-05
-5.31581e-07
-1.84016e-05
-6.00024e-07
-1.82205e-05
-6.74335e-07
-1.80257e-05
-7.40658e-07
-1.78175e-05
-8.0683e-07
-1.75969e-05
-8.67896e-07
-1.73649e-05
-9.24957e-07
-1.71227e-05
-9.78063e-07
-1.6871e-05
-1.02889e-06
-1.66116e-05
-1.07146e-06
-1.63457e-05
-1.11066e-06
-1.6075e-05
-1.14129e-06
-1.58002e-05
-1.17235e-06
-1.55246e-05
-1.18679e-06
-1.5253e-05
-1.17761e-06
-1.49882e-05
-1.1601e-06
-1.47401e-05
-1.08564e-06
-1.45115e-05
-1.00895e-06
-1.43187e-05
-8.37534e-07
-1.41747e-05
-6.0279e-07
-2.37236e-07
-1.51028e-05
-5.43733e-07
-1.50902e-05
-3.83938e-09
-1.5126e-05
2.388e-07
-1.51933e-05
4.64607e-07
-1.52847e-05
5.83198e-07
-1.53866e-05
5.9103e-07
-1.54967e-05
6.10131e-07
-1.56087e-05
5.82358e-07
-1.57195e-05
5.42228e-07
-1.58289e-05
5.00597e-07
-1.59362e-05
4.59205e-07
-1.60408e-05
4.1468e-07
-1.61424e-05
3.73282e-07
-1.62412e-05
3.36247e-07
-1.63368e-05
2.98194e-07
-1.64299e-05
2.70388e-07
-1.65198e-05
2.38032e-07
-1.66076e-05
2.16889e-07
-1.66933e-05
1.97193e-07
-1.67775e-05
1.84856e-07
-1.68605e-05
1.75393e-07
-1.69426e-05
1.68951e-07
-1.70238e-05
1.64926e-07
-1.71047e-05
1.65047e-07
-1.71853e-05
1.67725e-07
-1.72661e-05
1.73603e-07
-1.73473e-05
1.81718e-07
-1.74294e-05
1.92947e-07
-1.75124e-05
2.06224e-07
-1.75967e-05
2.21793e-07
-1.76824e-05
2.3912e-07
-1.77699e-05
2.58409e-07
-1.78594e-05
2.78991e-07
-1.79509e-05
3.009e-07
-1.80447e-05
3.23636e-07
-1.81408e-05
3.46677e-07
-1.82395e-05
3.70534e-07
-1.83407e-05
3.94428e-07
-1.84445e-05
4.18102e-07
-1.85511e-05
4.40801e-07
-1.86603e-05
4.63014e-07
-1.87721e-05
4.8417e-07
-1.88863e-05
5.04832e-07
-1.90026e-05
5.24875e-07
-1.91209e-05
5.44009e-07
-1.92408e-05
5.61758e-07
-1.9362e-05
5.78405e-07
-1.94842e-05
5.92842e-07
-1.96071e-05
6.05841e-07
-1.973e-05
6.16516e-07
-1.98522e-05
6.24663e-07
-1.99733e-05
6.3071e-07
-2.00925e-05
6.33558e-07
-2.02094e-05
6.33398e-07
-2.03232e-05
6.30151e-07
-2.04332e-05
6.22905e-07
-2.05387e-05
6.12227e-07
-2.0639e-05
5.97097e-07
-2.07331e-05
5.77965e-07
-2.08203e-05
5.5484e-07
-2.08998e-05
5.27115e-07
-2.09708e-05
4.94495e-07
-2.10323e-05
4.57459e-07
-2.10837e-05
4.15127e-07
-2.11241e-05
3.68047e-07
-2.11526e-05
3.15909e-07
-2.11684e-05
2.58914e-07
-2.11709e-05
1.96643e-07
-2.11593e-05
1.29695e-07
-2.11329e-05
5.86421e-08
-2.10912e-05
-1.69605e-08
-2.10336e-05
-9.55779e-08
-2.09599e-05
-1.7795e-07
-2.08698e-05
-2.62566e-07
-2.07631e-05
-3.48545e-07
-2.06397e-05
-4.35925e-07
-2.04995e-05
-5.25679e-07
-2.03428e-05
-6.13978e-07
-2.01695e-05
-7.04937e-07
-1.99804e-05
-7.89083e-07
-1.97752e-05
-8.7952e-07
-1.95552e-05
-9.60676e-07
-1.93209e-05
-1.04116e-06
-1.90734e-05
-1.11538e-06
-1.88139e-05
-1.18447e-06
-1.85435e-05
-1.24848e-06
-1.82632e-05
-1.30913e-06
-1.79751e-05
-1.35963e-06
-1.76802e-05
-1.40551e-06
-1.73806e-05
-1.44091e-06
-1.70772e-05
-1.47575e-06
-1.67734e-05
-1.49059e-06
-1.64743e-05
-1.47673e-06
-1.61833e-05
-1.45107e-06
-1.59105e-05
-1.35848e-06
-1.56596e-05
-1.25981e-06
-1.54473e-05
-1.04986e-06
-1.52878e-05
-7.62251e-07
-3.19751e-07
-1.61772e-05
-6.49146e-07
-1.61634e-05
-1.76225e-08
-1.62024e-05
2.77744e-07
-1.62717e-05
5.33956e-07
-1.63669e-05
6.78364e-07
-1.64754e-05
6.99534e-07
-1.65934e-05
7.28161e-07
-1.67146e-05
7.03576e-07
-1.68359e-05
6.63446e-07
-1.69565e-05
6.2128e-07
-1.70757e-05
5.78418e-07
-1.71931e-05
5.31988e-07
-1.73079e-05
4.88158e-07
-1.74204e-05
4.48763e-07
-1.75301e-05
4.07862e-07
-1.76377e-05
3.77941e-07
-1.77424e-05
3.42761e-07
-1.78452e-05
3.19664e-07
-1.79461e-05
2.98087e-07
-1.80456e-05
2.84381e-07
-1.81441e-05
2.73854e-07
-1.82416e-05
2.66533e-07
-1.83385e-05
2.61794e-07
-1.8435e-05
2.61525e-07
-1.85313e-05
2.64029e-07
-1.86277e-05
2.70036e-07
-1.87245e-05
2.78516e-07
-1.88221e-05
2.90488e-07
-1.89205e-05
3.04689e-07
-1.90202e-05
3.21418e-07
-1.91211e-05
3.40114e-07
-1.92238e-05
3.61017e-07
-1.93281e-05
3.83366e-07
-1.94345e-05
4.07228e-07
-1.95429e-05
4.32045e-07
-1.96535e-05
4.57322e-07
-1.97665e-05
4.83493e-07
-1.98818e-05
5.09765e-07
-1.99996e-05
5.35871e-07
-2.01198e-05
5.61009e-07
-2.02424e-05
5.85633e-07
-2.03673e-05
6.09046e-07
-2.04942e-05
6.31772e-07
-2.06229e-05
6.53583e-07
-2.07532e-05
6.74258e-07
-2.08846e-05
6.93188e-07
-2.10169e-05
7.10692e-07
-2.11497e-05
7.25603e-07
-2.12824e-05
7.38614e-07
-2.14146e-05
7.48649e-07
-2.15454e-05
7.55546e-07
-2.16745e-05
7.59761e-07
-2.1801e-05
7.60114e-07
-2.19244e-05
7.56784e-07
-2.2044e-05
7.49681e-07
-2.21589e-05
7.3781e-07
-2.22684e-05
7.21804e-07
-2.23719e-05
7.00566e-07
-2.24684e-05
6.74448e-07
-2.25569e-05
6.43348e-07
-2.26366e-05
6.06794e-07
-2.27066e-05
5.64482e-07
-2.2766e-05
5.16913e-07
-2.28141e-05
4.63174e-07
-2.28499e-05
4.03839e-07
-2.28726e-05
3.38609e-07
-2.28814e-05
2.67737e-07
-2.28756e-05
1.90865e-07
-2.28545e-05
1.08541e-07
-2.28173e-05
2.14917e-08
-2.27636e-05
-7.06972e-08
-2.26929e-05
-1.66267e-07
-2.26048e-05
-2.66037e-07
-2.24991e-05
-3.68277e-07
-2.23757e-05
-4.71965e-07
-2.22345e-05
-5.77073e-07
-2.20755e-05
-6.8466e-07
-2.1899e-05
-7.90502e-07
-2.17049e-05
-8.99045e-07
-2.14941e-05
-9.99893e-07
-2.12663e-05
-1.10728e-06
-2.10228e-05
-1.20415e-06