/*--------------------------------*- C++ -*----------------------------------*\
  =========                 |
  \\      /  F ield         | OpenFOAM: The Open Source CFD Toolbox
   \\    /   O peration     | Website:  https://openfoam.org
    \\  /    A nd           | Version:  9
     \\/     M anipulation  |
\*---------------------------------------------------------------------------*/
FoamFile
{
    format      ascii;
    class       volScalarField;
    location    "3000";
    object      Q;
}
// * * * * * * * * * * * * * * * * * * * * * * * * * * * * * * * * * * * * * //

dimensions      [0 0 -2 0 0 0 0];

internalField   nonuniform List<scalar> 
14751
(
-7.64635e-07
-2.24586e-07
-9.74652e-07
-4.76694e-07
-6.61838e-07
-5.0866e-07
-5.10935e-07
-4.90789e-07
-4.11879e-07
-3.50878e-07
-3.00597e-07
-2.54285e-07
-1.90964e-07
-1.44674e-07
-8.50997e-08
-3.18544e-08
1.44817e-08
5.4345e-08
7.70718e-08
9.71681e-08
1.00329e-07
1.00054e-07
9.69775e-08
9.27675e-08
8.73195e-08
8.12786e-08
7.65832e-08
7.27242e-08
6.76793e-08
6.43469e-08
6.05965e-08
5.69053e-08
5.33169e-08
5.04421e-08
4.86112e-08
4.50415e-08
4.00065e-08
3.64881e-08
3.58543e-08
3.4419e-08
2.67241e-08
2.62835e-08
2.58959e-08
2.40681e-08
2.57511e-08
2.35953e-08
2.16691e-08
2.03348e-08
1.79107e-08
1.46396e-08
1.41041e-08
1.42073e-08
1.2594e-08
1.05219e-08
7.85243e-09
6.09078e-09
4.42454e-09
1.1953e-09
-6.20851e-09
-8.9063e-09
-1.27034e-08
-1.24777e-08
-4.48835e-09
-1.12999e-08
-1.95519e-08
-2.09267e-08
-2.05015e-08
-2.31953e-08
-2.63248e-08
-2.70001e-08
-2.62152e-08
-2.50394e-08
-2.38563e-08
-1.93891e-08
-1.33205e-08
-9.09711e-09
1.39384e-09
5.10292e-09
2.39355e-08
3.41506e-08
4.88649e-08
7.25345e-08
8.19224e-08
9.64174e-08
1.01203e-07
9.76993e-08
9.52391e-08
8.38776e-08
8.03991e-08
5.52502e-08
9.93212e-09
3.38961e-09
-9.51061e-08
-1.01528e-07
-1.40848e-07
-2.79484e-07
-6.07044e-07
1.44026e-07
-8.29243e-07
-4.48214e-06
-1.48205e-06
-4.47655e-06
-3.0303e-06
-3.67153e-06
-3.1302e-06
-2.7697e-06
-2.74922e-06
-2.43256e-06
-2.15283e-06
-1.90869e-06
-1.66742e-06
-1.38684e-06
-1.17119e-06
-9.21819e-07
-7.10108e-07
-5.18122e-07
-3.26954e-07
-1.85543e-07
-2.32053e-08
9.47276e-08
1.98041e-07
2.93312e-07
3.77785e-07
4.51589e-07
5.038e-07
5.49798e-07
5.88292e-07
6.14301e-07
6.41004e-07
6.5732e-07
6.67699e-07
6.7369e-07
6.76961e-07
6.73545e-07
6.58295e-07
6.35193e-07
6.07659e-07
5.78375e-07
5.50277e-07
5.24788e-07
5.36143e-07
5.46348e-07
5.42785e-07
5.38348e-07
5.2132e-07
5.07039e-07
4.92253e-07
4.66332e-07
4.39791e-07
4.41455e-07
4.50338e-07
4.41513e-07
4.25237e-07
4.0689e-07
3.91894e-07
3.74366e-07
3.50152e-07
3.191e-07
2.97267e-07
2.67805e-07
2.50118e-07
2.4519e-07
2.00991e-07
1.62648e-07
1.38896e-07
1.11844e-07
7.64871e-08
4.45205e-08
1.5642e-08
-1.04787e-08
-3.62777e-08
-6.32498e-08
-7.62595e-08
-8.52928e-08
-1.02049e-07
-1.00377e-07
-1.24464e-07
-1.01417e-07
-1.24787e-07
-1.31472e-07
-1.02795e-07
-1.30616e-07
-1.2714e-07
-1.49982e-07
-2.01895e-07
-2.41183e-07
-3.05722e-07
-3.58269e-07
-5.18449e-07
-7.14747e-07
-7.61235e-07
-1.15469e-06
-1.24838e-06
-1.70567e-06
-2.60686e-06
-2.86472e-06
2.6355e-08
-4.82118e-06
-9.4219e-06
-3.57242e-06
-8.73101e-06
-6.6844e-06
-8.05381e-06
-7.44324e-06
-6.77283e-06
-6.77587e-06
-6.16521e-06
-5.53333e-06
-4.93779e-06
-4.36247e-06
-3.74444e-06
-3.19902e-06
-2.58803e-06
-2.03784e-06
-1.50948e-06
-9.91968e-07
-5.86891e-07
-1.42511e-07
2.19035e-07
5.29542e-07
8.11499e-07
1.07387e-06
1.31798e-06
1.4934e-06
1.65198e-06
1.78334e-06
1.87878e-06
1.97478e-06
2.04018e-06
2.08667e-06
2.11728e-06
2.13399e-06
2.13016e-06
2.09198e-06
2.02687e-06
1.93934e-06
1.83798e-06
1.73855e-06
1.67152e-06
1.7027e-06
1.73082e-06
1.72742e-06
1.7065e-06
1.65367e-06
1.60852e-06
1.55407e-06
1.46567e-06
1.3798e-06
1.37118e-06
1.39555e-06
1.37885e-06
1.33064e-06
1.27386e-06
1.22291e-06
1.16653e-06
1.09714e-06
1.01499e-06
9.49864e-07
8.67464e-07
7.92687e-07
7.38724e-07
6.22751e-07
5.22129e-07
4.44081e-07
3.53751e-07
2.47109e-07
1.48948e-07
5.68371e-08
-3.39506e-08
-1.23588e-07
-2.13564e-07
-2.75359e-07
-3.2883e-07
-3.94061e-07
-4.25462e-07
-5.02774e-07
-5.04456e-07
-5.9008e-07
-6.44239e-07
-6.35414e-07
-7.32136e-07
-7.84598e-07
-8.98533e-07
-1.07451e-06
-1.23041e-06
-1.44091e-06
-1.65445e-06
-2.0732e-06
-2.57073e-06
-2.78344e-06
-3.54986e-06
-3.83932e-06
-4.80082e-06
-6.21258e-06
-5.93364e-06
-1.09898e-06
-1.01172e-05
-1.44539e-05
-7.15663e-06
-1.33064e-05
-1.12374e-05
-1.27397e-05
-1.22708e-05
-1.13768e-05
-1.12628e-05
-1.03698e-05
-9.32287e-06
-8.28751e-06
-7.29281e-06
-6.26777e-06
-5.3039e-06
-4.28435e-06
-3.32385e-06
-2.38226e-06
-1.47313e-06
-7.29103e-07
4.38422e-08
7.05275e-07
1.27167e-06
1.78178e-06
2.26014e-06
2.70335e-06
3.03074e-06
3.33046e-06
3.57325e-06
3.75413e-06
3.93033e-06
4.05261e-06
4.1386e-06
4.19167e-06
4.21433e-06
4.20073e-06
4.12202e-06
3.9893e-06
3.80983e-06
3.59765e-06
3.38326e-06
3.23831e-06
3.26941e-06
3.31169e-06
3.30923e-06
3.26123e-06
3.15318e-06
3.05578e-06
2.93508e-06
2.74936e-06
2.5573e-06
2.49114e-06
2.52564e-06
2.5185e-06
2.42952e-06
2.31105e-06
2.1998e-06
2.08295e-06
1.94919e-06
1.79123e-06
1.66204e-06
1.50898e-06
1.35501e-06
1.23584e-06
1.0309e-06
8.45359e-07
6.93013e-07
5.23928e-07
3.29376e-07
1.44872e-07
-2.52292e-08
-1.96931e-07
-3.64013e-07
-5.27075e-07
-6.51632e-07
-7.62857e-07
-8.84512e-07
-9.62131e-07
-1.09116e-06
-1.14093e-06
-1.29104e-06
-1.41001e-06
-1.45402e-06
-1.62288e-06
-1.75872e-06
-1.99077e-06
-2.31503e-06
-2.62751e-06
-3.02739e-06
-3.46261e-06
-4.15549e-06
-4.97896e-06
-5.45583e-06
-6.55244e-06
-7.17165e-06
-8.53169e-06
-1.01643e-05
-9.58292e-06
-4.09437e-06
-1.50998e-05
-1.77843e-05
-1.09355e-05
-1.66037e-05
-1.49192e-05
-1.59594e-05
-1.5687e-05
-1.4693e-05
-1.43517e-05
-1.3308e-05
-1.19745e-05
-1.05929e-05
-9.25973e-06
-7.92423e-06
-6.63312e-06
-5.33427e-06
-4.08729e-06
-2.84949e-06
-1.64898e-06
-6.37019e-07
3.63697e-07
1.24708e-06
2.00635e-06
2.68724e-06
3.32213e-06
3.90241e-06
4.34506e-06
4.74789e-06
5.06991e-06
5.31369e-06
5.54117e-06
5.70012e-06
5.80784e-06
5.86672e-06
5.88185e-06
5.84922e-06
5.72912e-06
5.54209e-06
5.30202e-06
5.00888e-06
4.68803e-06
4.43776e-06
4.41168e-06
4.4542e-06
4.46339e-06
4.3917e-06
4.23503e-06
4.0886e-06
3.91193e-06
3.64535e-06
3.33835e-06
3.16174e-06
3.16914e-06
3.18062e-06
3.06076e-06
2.87978e-06
2.70703e-06
2.53141e-06
2.33953e-06
2.11616e-06
1.92702e-06
1.7159e-06
1.49604e-06
1.31721e-06
1.0505e-06
8.00172e-07
5.86561e-07
3.59195e-07
1.03242e-07
-1.44332e-07
-3.70718e-07
-5.99703e-07
-8.19579e-07
-1.03102e-06
-1.20409e-06
-1.3605e-06
-1.52205e-06
-1.64272e-06
-1.80069e-06
-1.88918e-06
-2.06891e-06
-2.23697e-06
-2.34302e-06
-2.56838e-06
-2.79556e-06
-3.12918e-06
-3.56428e-06
-4.01071e-06
-4.56579e-06
-5.18434e-06
-6.0533e-06
-7.09017e-06
-7.81378e-06
-9.07681e-06
-9.98888e-06
-1.14634e-05
-1.30594e-05
-1.26823e-05
-7.82016e-06
-1.79929e-05
-1.90123e-05
-1.35824e-05
-1.80265e-05
-1.68371e-05
-1.72458e-05
-1.71141e-05
-1.61068e-05
-1.55082e-05
-1.43964e-05
-1.29826e-05
-1.15219e-05
-1.00875e-05
-8.62473e-06
-7.16451e-06
-5.75532e-06
-4.40835e-06
-3.0502e-06
-1.71176e-06
-5.67113e-07
5.18381e-07
1.49674e-06
2.34451e-06
3.10444e-06
3.80604e-06
4.44031e-06
4.94007e-06
5.38976e-06
5.74877e-06
6.02445e-06
6.27078e-06
6.44466e-06
6.5597e-06
6.61625e-06
6.6229e-06
6.58386e-06
6.45954e-06
6.26272e-06
6.00442e-06
5.68017e-06
5.30288e-06
4.95576e-06
4.82482e-06
4.84431e-06
4.8749e-06
4.79618e-06
4.61522e-06
4.44057e-06
4.24094e-06
3.95424e-06
3.624e-06
3.41013e-06
3.34836e-06
3.27492e-06
3.09298e-06
2.86665e-06
2.64567e-06
2.42556e-06
2.19245e-06
1.92644e-06
1.69374e-06
1.44512e-06
1.18385e-06
9.62979e-07
6.65744e-07
3.79047e-07
1.27901e-07
-1.30428e-07
-4.14997e-07
-6.93299e-07
-9.46913e-07
-1.2019e-06
-1.44435e-06
-1.67558e-06
-1.87343e-06
-2.05139e-06
-2.22347e-06
-2.3572e-06
-2.51582e-06
-2.633e-06
-2.82223e-06
-3.02087e-06
-3.18168e-06
-3.43906e-06
-3.72628e-06
-4.11431e-06
-4.6022e-06
-5.12528e-06
-5.76189e-06
-6.47483e-06
-7.39718e-06
-8.49807e-06
-9.36395e-06
-1.06246e-05
-1.16745e-05
-1.30438e-05
-1.44924e-05
-1.45499e-05
-1.08043e-05
-1.87193e-05
-1.90153e-05
-1.50803e-05
-1.82511e-05
-1.74829e-05
-1.74003e-05
-1.73438e-05
-1.63661e-05
-1.55721e-05
-1.44685e-05
-1.30956e-05
-1.16652e-05
-1.0239e-05
-8.75191e-06
-7.22694e-06
-5.78773e-06
-4.40327e-06
-3.02601e-06
-1.70392e-06
-5.4354e-07
5.54455e-07
1.55687e-06
2.43446e-06
3.22269e-06
3.94503e-06
4.59381e-06
5.11887e-06
5.58662e-06
5.96239e-06
6.25515e-06
6.50727e-06
6.68643e-06
6.80685e-06
6.87002e-06
6.88072e-06
6.84306e-06
6.72209e-06
6.53042e-06
6.28142e-06
5.96618e-06
5.58632e-06
5.21048e-06
4.99644e-06
4.92701e-06
4.90644e-06
4.81057e-06
4.63025e-06
4.44101e-06
4.23062e-06
3.95847e-06
3.63073e-06
3.36048e-06
3.20399e-06
3.05687e-06
2.83102e-06
2.5661e-06
2.30376e-06
2.04618e-06
1.78097e-06
1.48649e-06
1.22121e-06
9.45817e-07
6.57692e-07
4.05788e-07
9.3811e-08
-2.10585e-07
-4.82592e-07
-7.55283e-07
-1.04814e-06
-1.33515e-06
-1.59635e-06
-1.85664e-06
-2.10216e-06
-2.33301e-06
-2.53036e-06
-2.70243e-06
-2.86804e-06
-3.01092e-06
-3.16552e-06
-3.2939e-06
-3.47397e-06
-3.68094e-06
-3.87428e-06
-4.1452e-06
-4.46691e-06
-4.87551e-06
-5.37492e-06
-5.92677e-06
-6.58715e-06
-7.32647e-06
-8.23043e-06
-9.30433e-06
-1.02209e-05
-1.13945e-05
-1.24698e-05
-1.36734e-05
-1.49627e-05
-1.53983e-05
-1.27454e-05
-1.83738e-05
-1.8377e-05
-1.56796e-05
-1.77573e-05
-1.72923e-05
-1.69058e-05
-1.68892e-05
-1.59658e-05
-1.5045e-05
-1.39661e-05
-1.26729e-05
-1.13146e-05
-9.92654e-06
-8.48147e-06
-7.00709e-06
-5.60773e-06
-4.24716e-06
-2.91094e-06
-1.6264e-06
-4.69556e-07
6.16339e-07
1.615e-06
2.4978e-06
3.29257e-06
4.01684e-06
4.6644e-06
5.19831e-06
5.66931e-06
6.05e-06
6.35089e-06
6.6043e-06
6.78642e-06
6.90959e-06
6.9739e-06
6.98337e-06
6.94453e-06
6.82847e-06
6.6434e-06
6.40219e-06
6.10102e-06
5.74031e-06
5.3682e-06
5.10831e-06
4.94805e-06
4.81146e-06
4.6482e-06
4.46327e-06
4.24817e-06
4.0061e-06
3.74738e-06
3.44787e-06
3.15963e-06
2.92387e-06
2.68699e-06
2.4073e-06
2.10793e-06
1.80907e-06
1.51872e-06
1.22903e-06
9.18982e-07
6.34423e-07
3.43479e-07
4.16659e-08
-2.28295e-07
-5.42424e-07
-8.48953e-07
-1.12546e-06
-1.39691e-06
-1.68115e-06
-1.95811e-06
-2.20886e-06
-2.4559e-06
-2.68578e-06
-2.89586e-06
-3.07483e-06
-3.23103e-06
-3.37786e-06
-3.50861e-06
-3.64822e-06
-3.78184e-06
-3.94855e-06
-4.14924e-06
-4.35397e-06
-4.61915e-06
-4.9465e-06
-5.34701e-06
-5.82895e-06
-6.37338e-06
-7.01678e-06
-7.73653e-06
-8.5837e-06
-9.58362e-06
-1.04891e-05
-1.15478e-05
-1.25878e-05
-1.36334e-05
-1.47799e-05
-1.54654e-05
-1.36941e-05
-1.74939e-05
-1.73296e-05
-1.55487e-05
-1.67869e-05
-1.65259e-05
-1.59802e-05
-1.59483e-05
-1.5111e-05
-1.42164e-05
-1.32295e-05
-1.20305e-05
-1.07544e-05
-9.43666e-06
-8.0658e-06
-6.65258e-06
-5.29669e-06
-3.96568e-06
-2.67322e-06
-1.44534e-06
-3.17392e-07
7.45548e-07
1.72777e-06
2.60221e-06
3.39065e-06
4.1058e-06
4.74268e-06
5.27406e-06
5.7389e-06
6.11642e-06
6.41668e-06
6.6638e-06
6.84061e-06
6.95849e-06
7.01808e-06
7.02166e-06
6.9745e-06
6.85429e-06
6.66902e-06
6.43104e-06
6.14006e-06
5.80012e-06
5.44952e-06
5.1591e-06
4.91117e-06
4.69472e-06
4.47883e-06
4.23266e-06
3.94423e-06
3.64161e-06
3.36811e-06
3.08069e-06
2.76955e-06
2.47879e-06
2.19018e-06
1.87478e-06
1.54828e-06
1.22127e-06
9.04576e-07
5.99936e-07
2.91044e-07
5.63502e-09
-2.85331e-07
-5.84779e-07
-8.56111e-07
-1.15713e-06
-1.4488e-06
-1.71226e-06
-1.96605e-06
-2.22529e-06
-2.47491e-06
-2.69835e-06
-2.91455e-06
-3.11133e-06
-3.28831e-06
-3.44092e-06
-3.5739e-06
-3.69714e-06
-3.80852e-06
-3.92305e-06
-4.04459e-06
-4.18885e-06
-4.37107e-06
-4.56887e-06
-4.81359e-06
-5.12444e-06
-5.49692e-06
-5.94208e-06
-6.45366e-06
-7.05321e-06
-7.72431e-06
-8.4954e-06
-9.40122e-06
-1.02613e-05
-1.12066e-05
-1.21843e-05
-1.31017e-05
-1.41226e-05
-1.49273e-05
-1.3808e-05
-1.62997e-05
-1.60579e-05
-1.49292e-05
-1.56551e-05
-1.55705e-05
-1.49879e-05
-1.49569e-05
-1.42201e-05
-1.33671e-05
-1.24474e-05
-1.13239e-05
-1.01131e-05
-8.84945e-06
-7.54605e-06
-6.20992e-06
-4.91331e-06
-3.62883e-06
-2.38796e-06
-1.20727e-06
-1.07456e-07
9.2678e-07
1.8849e-06
2.7419e-06
3.51485e-06
4.2128e-06
4.83185e-06
5.35177e-06
5.80252e-06
6.16847e-06
6.4593e-06
6.69361e-06
6.85885e-06
6.96403e-06
7.01005e-06
6.99995e-06
6.93859e-06
6.80855e-06
6.6178e-06
6.37786e-06
6.09017e-06
5.76024e-06
5.42186e-06
5.1235e-06
4.83109e-06
4.53721e-06
4.2473e-06
3.94785e-06
3.61936e-06
3.28102e-06
2.97046e-06
2.64826e-06
2.30311e-06
1.97544e-06
1.65418e-06
1.31574e-06
9.71898e-07
6.26873e-07
2.89597e-07
-2.53033e-08
-3.2213e-07
-5.94174e-07
-8.72521e-07
-1.1554e-06
-1.41222e-06
-1.6859e-06
-1.94767e-06
-2.18267e-06
-2.4046e-06
-2.62579e-06
-2.83541e-06
-3.01955e-06
-3.19241e-06
-3.34527e-06
-3.48211e-06
-3.60279e-06
-3.70934e-06
-3.80815e-06
-3.8965e-06
-3.98103e-06
-4.08014e-06
-4.19802e-06
-4.35495e-06
-4.53433e-06
-4.75132e-06
-5.03349e-06
-5.36853e-06
-5.76876e-06
-6.23539e-06
-6.77991e-06
-7.39122e-06
-8.08481e-06
-8.89727e-06
-9.69849e-06
-1.05469e-05
-1.14576e-05
-1.22823e-05
-1.32041e-05
-1.40429e-05
-1.33705e-05
-1.4983e-05
-1.4882e-05
-1.42043e-05
-1.45999e-05
-1.46156e-05
-1.40341e-05
-1.39753e-05
-1.33118e-05
-1.25203e-05
-1.16633e-05
-1.06033e-05
-9.45581e-06
-8.25424e-06
-7.01816e-06
-5.74727e-06
-4.50326e-06
-3.26722e-06
-2.07363e-06
-9.35644e-07
1.31778e-07
1.1329e-06
2.06146e-06
2.89411e-06
3.64437e-06
4.31859e-06
4.91379e-06
5.41486e-06
5.84512e-06
6.19282e-06
6.46655e-06
6.68088e-06
6.82735e-06
6.91337e-06
6.94028e-06
6.91169e-06
6.83228e-06
6.68861e-06
6.48836e-06
6.24199e-06
5.95167e-06
5.62247e-06
5.28112e-06
4.96452e-06
4.64935e-06
4.3359e-06
4.0105e-06
3.65652e-06
3.28676e-06
2.91311e-06
2.56e-06
2.20777e-06
1.84204e-06
1.49142e-06
1.15011e-06
7.99862e-07
4.50225e-07
1.03857e-07
-2.30963e-07
-5.43101e-07
-8.33903e-07
-1.09606e-06
-1.35573e-06
-1.61353e-06
-1.84589e-06
-2.08454e-06
-2.30871e-06
-2.50728e-06
-2.69062e-06
-2.86874e-06
-3.03449e-06
-3.17654e-06
-3.30482e-06
-3.41346e-06
-3.51021e-06
-3.59762e-06
-3.67442e-06
-3.74377e-06
-3.80649e-06
-3.86878e-06
-3.95079e-06
-4.0467e-06
-4.17937e-06
-4.33822e-06
-4.52921e-06
-4.78202e-06
-5.08176e-06
-5.44078e-06
-5.86416e-06
-6.35751e-06
-6.9138e-06
-7.54089e-06
-8.27336e-06
-9.01777e-06
-9.79e-06
-1.06383e-05
-1.13962e-05
-1.22404e-05
-1.30737e-05
-1.27248e-05
-1.38014e-05
-1.37818e-05
-1.3403e-05
-1.3602e-05
-1.36821e-05
-1.31308e-05
-1.30496e-05
-1.24496e-05
-1.17115e-05
-1.0903e-05
-9.90339e-06
-8.8169e-06
-7.67475e-06
-6.49725e-06
-5.2827e-06
-4.08809e-06
-2.89955e-06
-1.75154e-06
-6.56118e-07
3.75147e-07
1.33978e-06
2.23417e-06
3.03687e-06
3.75847e-06
4.4034e-06
4.96944e-06
5.44526e-06
5.84914e-06
6.17241e-06
6.4228e-06
6.61206e-06
6.73478e-06
6.79742e-06
6.80185e-06
6.75198e-06
6.6523e-06
6.49276e-06
6.28051e-06
6.02488e-06
5.7283e-06
5.39531e-06
5.04727e-06
4.71294e-06
4.37688e-06
4.04207e-06
3.69486e-06
3.32258e-06
2.94548e-06
2.56645e-06
2.18551e-06
1.79967e-06
1.41778e-06
1.05772e-06
7.08491e-07
3.57077e-07
1.15637e-08
-3.2683e-07
-6.51881e-07
-9.53664e-07
-1.23077e-06
-1.47821e-06
-1.7166e-06
-1.94663e-06
-2.15142e-06
-2.35466e-06
-2.54161e-06
-2.70427e-06
-2.85074e-06
-2.98926e-06
-3.11544e-06
-3.2192e-06
-3.30819e-06
-3.38134e-06
-3.44654e-06
-3.50569e-06
-3.55685e-06
-3.60408e-06
-3.65023e-06
-3.69573e-06
-3.75979e-06
-3.83643e-06
-3.94853e-06
-4.08857e-06
-4.25767e-06
-4.48447e-06
-4.75416e-06
-5.07852e-06
-5.46443e-06
-5.91425e-06
-6.42374e-06
-6.99642e-06
-7.66347e-06
-8.35658e-06
-9.06818e-06
-9.85954e-06
-1.05645e-05
-1.1345e-05
-1.21526e-05
-1.2021e-05
-1.27457e-05
-1.27608e-05
-1.25915e-05
-1.26754e-05
-1.27899e-05
-1.22878e-05
-1.21895e-05
-1.16404e-05
-1.09475e-05
-1.01805e-05
-9.23632e-06
-8.2059e-06
-7.11816e-06
-5.99323e-06
-4.831e-06
-3.68423e-06
-2.54277e-06
-1.44027e-06
-3.88416e-07
6.03343e-07
1.52829e-06
2.38447e-06
3.15239e-06
3.8403e-06
4.45126e-06
4.98368e-06
5.42912e-06
5.80204e-06
6.09632e-06
6.31909e-06
6.47998e-06
6.57595e-06
6.6129e-06
6.59318e-06
6.52083e-06
6.40025e-06
6.22411e-06
5.99908e-06
5.73332e-06
5.42948e-06
5.09177e-06
4.73776e-06
4.39036e-06
4.0393e-06
3.68809e-06
3.32629e-06
2.94599e-06
2.56496e-06
2.18312e-06
1.79719e-06
1.40801e-06
1.02755e-06
6.69752e-07
3.24458e-07
-1.75964e-08
-3.49438e-07
-6.69303e-07
-9.71551e-07
-1.25357e-06
-1.51601e-06
-1.74839e-06
-1.96387e-06
-2.16563e-06
-2.34249e-06
-2.51231e-06
-2.66484e-06
-2.7945e-06
-2.90779e-06
-3.01148e-06
-3.10277e-06
-3.17387e-06
-3.2319e-06
-3.27737e-06
-3.31671e-06
-3.3517e-06
-3.38054e-06
-3.40672e-06
-3.43634e-06
-3.47014e-06
-3.52234e-06
-3.58468e-06
-3.67959e-06
-3.80292e-06
-3.9535e-06
-4.15731e-06
-4.40103e-06
-4.69549e-06
-5.04818e-06
-5.45986e-06
-5.92827e-06
-6.45424e-06
-7.06486e-06
-7.70982e-06
-8.36923e-06
-9.10599e-06
-9.76396e-06
-1.04859e-05
-1.12546e-05
-1.12797e-05
-1.17859e-05
-1.1828e-05
-1.18012e-05
-1.18197e-05
-1.19505e-05
-1.15038e-05
-1.13909e-05
-1.08831e-05
-1.0231e-05
-9.5016e-06
-8.608e-06
-7.6291e-06
-6.59179e-06
-5.51587e-06
-4.4038e-06
-3.30415e-06
-2.20993e-06
-1.15365e-06
-1.46774e-07
8.02501e-07
1.68493e-06
2.49951e-06
3.22872e-06
3.87897e-06
4.45233e-06
4.94778e-06
5.35914e-06
5.69803e-06
5.96044e-06
6.15302e-06
6.2839e-06
6.35184e-06
6.3624e-06
6.31836e-06
6.22384e-06
6.08312e-06
5.89118e-06
5.65417e-06
5.3793e-06
5.06936e-06
4.7285e-06
4.37141e-06
4.01659e-06
3.65749e-06
3.29768e-06
2.92978e-06
2.549e-06
2.16944e-06
1.78987e-06
1.40821e-06
1.02791e-06
6.59272e-07
3.12778e-07
-1.94884e-08
-3.44028e-07
-6.54961e-07
-9.50791e-07
-1.22675e-06
-1.48198e-06
-1.71849e-06
-1.92719e-06
-2.11633e-06
-2.28887e-06
-2.43741e-06
-2.57539e-06
-2.69591e-06
-2.79529e-06
-2.87874e-06
-2.95176e-06
-3.0125e-06
-3.05533e-06
-3.08774e-06
-3.11106e-06
-3.1295e-06
-3.14467e-06
-3.15574e-06
-3.16598e-06
-3.18179e-06
-3.20387e-06
-3.24425e-06
-3.29493e-06
-3.37576e-06
-3.48462e-06
-3.6196e-06
-3.80331e-06
-4.02459e-06
-4.29314e-06
-4.61642e-06
-4.99456e-06
-5.42665e-06
-5.91208e-06
-6.47394e-06
-7.07498e-06
-7.68985e-06
-8.37749e-06
-8.99702e-06
-9.67164e-06
-1.04023e-05
-1.05433e-05
-1.09196e-05
-1.09773e-05
-1.10447e-05
-1.10324e-05
-1.11681e-05
-1.0776e-05
-1.06513e-05
-1.01783e-05
-9.56396e-06
-8.86924e-06
-8.02223e-06
-7.09122e-06
-6.10143e-06
-5.07238e-06
-4.00924e-06
-2.95648e-06
-1.90999e-06
-9.00887e-07
5.95661e-08
9.63903e-07
1.80153e-06
2.57193e-06
3.25953e-06
3.86926e-06
4.40258e-06
4.85893e-06
5.23398e-06
5.53724e-06
5.76644e-06
5.92789e-06
6.02856e-06
6.06869e-06
6.0536e-06
5.98642e-06
5.8713e-06
5.71248e-06
5.50679e-06
5.25997e-06
4.97839e-06
4.66507e-06
4.32411e-06
3.96793e-06
3.61159e-06
3.25121e-06
2.89041e-06
2.52419e-06
2.1497e-06
1.77794e-06
1.40778e-06
1.03851e-06
6.7448e-07
3.23976e-07
-4.97496e-09
-3.18199e-07
-6.20245e-07
-9.06288e-07
-1.17521e-06
-1.42326e-06
-1.65023e-06
-1.85812e-06
-2.03992e-06
-2.20123e-06
-2.34462e-06
-2.4653e-06
-2.57343e-06
-2.6646e-06
-2.73653e-06
-2.79348e-06
-2.83989e-06
-2.87464e-06
-2.8944e-06
-2.90625e-06
-2.91152e-06
-2.91292e-06
-2.91235e-06
-2.90972e-06
-2.90803e-06
-2.91313e-06
-2.92565e-06
-2.95591e-06
-2.99716e-06
-3.0663e-06
-3.16261e-06
-3.28422e-06
-3.45034e-06
-3.65207e-06
-3.89803e-06
-4.1953e-06
-4.54385e-06
-4.94379e-06
-5.39382e-06
-5.91344e-06
-6.47479e-06
-7.05116e-06
-7.69495e-06
-8.28227e-06
-8.91766e-06
-9.61106e-06
-9.83435e-06
-1.01368e-05
-1.02029e-05
-1.03313e-05
-1.03099e-05
-1.04436e-05
-1.01024e-05
-9.96886e-06
-9.52597e-06
-8.94696e-06
-8.28468e-06
-7.48101e-06
-6.59509e-06
-5.6508e-06
-4.66735e-06
-3.65242e-06
-2.64657e-06
-1.64837e-06
-6.8732e-07
2.25552e-07
1.08317e-06
1.87443e-06
2.59898e-06
3.24314e-06
3.8107e-06
4.30272e-06
4.7191e-06
5.05701e-06
5.32443e-06
5.52051e-06
5.65125e-06
5.72285e-06
5.73665e-06
5.69782e-06
5.60978e-06
5.4767e-06
5.30276e-06
5.08635e-06
4.83279e-06
4.54782e-06
4.23462e-06
3.89727e-06
3.54631e-06
3.19402e-06
2.83851e-06
2.4833e-06
2.12524e-06
1.76275e-06
1.40443e-06
1.04969e-06
6.98814e-07
3.56093e-07
2.8004e-08
-2.79156e-07
-5.69513e-07
-8.46235e-07
-1.10547e-06
-1.34643e-06
-1.56624e-06
-1.76496e-06
-1.94436e-06
-2.09933e-06
-2.23391e-06
-2.35025e-06
-2.44537e-06
-2.52703e-06
-2.59259e-06
-2.64085e-06
-2.6753e-06
-2.69946e-06
-2.71307e-06
-2.7147e-06
-2.71042e-06
-2.70118e-06
-2.68901e-06
-2.67617e-06
-2.66301e-06
-2.65225e-06
-2.64902e-06
-2.65397e-06
-2.67591e-06
-2.70951e-06
-2.76889e-06
-2.8543e-06
-2.96426e-06
-3.11489e-06
-3.2994e-06
-3.5254e-06
-3.79946e-06
-4.12167e-06
-4.49285e-06
-4.91153e-06
-5.39405e-06
-5.91939e-06
-6.46176e-06
-7.0662e-06
-7.62548e-06
-8.22714e-06
-8.88442e-06
-9.16477e-06
-9.4284e-06
-9.49864e-06
-9.66512e-06
-9.64804e-06
-9.77583e-06
-9.48045e-06
-9.34101e-06
-8.92514e-06
-8.37926e-06
-7.74785e-06
-6.98501e-06
-6.14211e-06
-5.24187e-06
-4.30325e-06
-3.33602e-06
-2.37714e-06
-1.4276e-06
-5.15147e-07
3.49472e-07
1.15938e-06
1.90351e-06
2.58152e-06
3.18149e-06
3.70638e-06
4.15704e-06
4.53376e-06
4.83499e-06
5.06757e-06
5.23182e-06
5.33348e-06
5.37816e-06
5.36812e-06
5.30837e-06
5.20255e-06
5.05485e-06
4.86939e-06
4.6458e-06
4.38905e-06
4.10435e-06
3.79499e-06
3.46497e-06
3.12324e-06
2.77986e-06
2.43434e-06
2.09004e-06
1.74516e-06
1.39903e-06
1.05842e-06
7.23293e-07
3.94551e-07
7.60207e-08
-2.27288e-07
-5.10372e-07
-7.76047e-07
-1.02651e-06
-1.25874e-06
-1.47222e-06
-1.66481e-06
-1.83665e-06
-1.98928e-06
-2.11914e-06
-2.22926e-06
-2.32149e-06
-2.3941e-06
-2.45305e-06
-2.49698e-06
-2.52543e-06
-2.54132e-06
-2.54749e-06
-2.54447e-06
-2.53199e-06
-2.51504e-06
-2.49432e-06
-2.47161e-06
-2.44933e-06
-2.42813e-06
-2.41041e-06
-2.40065e-06
-2.39958e-06
-2.41466e-06
-2.44191e-06
-2.49299e-06
-2.56881e-06
-2.66844e-06
-2.8053e-06
-2.97444e-06
-3.18261e-06
-3.43579e-06
-3.73434e-06
-4.07958e-06
-4.47017e-06
-4.91975e-06
-5.41231e-06
-5.92415e-06
-6.49305e-06
-7.02715e-06
-7.59893e-06
-8.2216e-06
-8.5404e-06
-8.78648e-06
-8.85817e-06
-9.04756e-06
-9.04222e-06
-9.16233e-06
-8.90755e-06
-8.76502e-06
-8.37402e-06
-7.85952e-06
-7.25787e-06
-6.53393e-06
-5.73247e-06
-4.87522e-06
-3.98083e-06
-3.06081e-06
-2.1488e-06
-1.24792e-06
-3.84139e-07
4.32157e-07
1.19417e-06
1.89128e-06
2.52298e-06
3.07908e-06
3.56187e-06
3.97216e-06
4.31061e-06
4.5767e-06
4.77644e-06
4.9111e-06
4.98617e-06
5.0069e-06
4.97617e-06
4.89888e-06
4.77883e-06
4.6202e-06
4.42705e-06
4.19997e-06
3.94361e-06
3.66272e-06
3.36063e-06
3.04122e-06
2.71207e-06
2.38146e-06
2.04984e-06
1.72037e-06
1.39224e-06
1.0654e-06
7.45239e-07
4.32166e-07
1.27368e-07
-1.6587e-07
-4.43679e-07
-7.02057e-07
-9.42851e-07
-1.16757e-06
-1.37389e-06
-1.56149e-06
-1.7288e-06
-1.87602e-06
-2.00446e-06
-2.11174e-06
-2.20022e-06
-2.27153e-06
-2.3248e-06
-2.36469e-06
-2.39068e-06
-2.40283e-06
-2.40365e-06
-2.39549e-06
-2.37948e-06
-2.35604e-06
-2.32911e-06
-2.29933e-06
-2.26849e-06
-2.23895e-06
-2.21153e-06
-2.1884e-06
-2.17342e-06
-2.16746e-06
-2.17679e-06
-2.19857e-06
-2.24244e-06
-2.30971e-06
-2.40001e-06
-2.52451e-06
-2.6798e-06
-2.87186e-06
-3.10613e-06
-3.38328e-06
-3.70499e-06
-4.07018e-06
-4.49025e-06
-4.9529e-06
-5.43699e-06
-5.97362e-06
-6.48462e-06
-7.02932e-06
-7.61923e-06
-7.96286e-06
-8.20376e-06
-8.27538e-06
-8.47795e-06
-8.48774e-06
-8.60014e-06
-8.381e-06
-8.23805e-06
-7.87047e-06
-7.3859e-06
-6.81328e-06
-6.12672e-06
-5.36546e-06
-4.55029e-06
-3.69954e-06
-2.82607e-06
-1.96055e-06
-1.1079e-06
-2.92299e-07
4.76246e-07
1.19098e-06
1.84195e-06
2.42847e-06
2.94193e-06
3.38415e-06
3.75595e-06
4.05835e-06
4.29167e-06
4.46132e-06
4.56929e-06
4.62089e-06
4.62106e-06
4.57316e-06
4.48196e-06
4.35138e-06
4.18552e-06
3.98839e-06
3.7613e-06
3.50859e-06
3.23461e-06
2.94267e-06
2.63644e-06
2.32236e-06
2.00727e-06
1.69222e-06
1.38016e-06
1.07096e-06
7.65021e-07
4.66659e-07
1.76583e-07
-1.03914e-07
-3.72076e-07
-6.24891e-07
-8.59146e-07
-1.07599e-06
-1.27643e-06
-1.45872e-06
-1.62267e-06
-1.76715e-06
-1.89238e-06
-1.99948e-06
-2.08695e-06
-2.15669e-06
-2.21016e-06
-2.24707e-06
-2.27111e-06
-2.28234e-06
-2.28117e-06
-2.26981e-06
-2.2503e-06
-2.22411e-06
-2.19201e-06
-2.15715e-06
-2.12023e-06
-2.08306e-06
-2.04785e-06
-2.01555e-06
-1.9881e-06
-1.96885e-06
-1.95877e-06
-1.96315e-06
-1.98011e-06
-2.01756e-06
-2.07712e-06
-2.15891e-06
-2.27222e-06
-2.4149e-06
-2.59231e-06
-2.80938e-06
-3.06707e-06
-3.36734e-06
-3.70942e-06
-4.10287e-06
-4.53817e-06
-4.99683e-06
-5.50405e-06
-5.99353e-06
-6.51338e-06
-7.07259e-06
-7.43121e-06
-7.67353e-06
-7.74464e-06
-7.95455e-06
-7.98033e-06
-8.08596e-06
-7.89807e-06
-7.75718e-06
-7.41208e-06
-6.95626e-06
-6.41215e-06
-5.76174e-06
-5.03959e-06
-4.26563e-06
-3.45782e-06
-2.63002e-06
-1.81023e-06
-1.0049e-06
-2.36443e-07
4.85536e-07
1.15432e-06
1.76074e-06
2.30396e-06
2.77675e-06
3.18065e-06
3.51653e-06
3.78571e-06
3.9892e-06
4.13197e-06
4.21656e-06
4.24808e-06
4.23127e-06
4.16978e-06
4.06828e-06
3.93069e-06
3.76107e-06
3.56331e-06
3.33924e-06
3.09292e-06
2.82833e-06
2.54868e-06
2.25742e-06
1.96001e-06
1.66212e-06
1.3652e-06
1.07192e-06
7.82681e-07
4.98138e-07
2.21801e-07
-4.54433e-08
-3.02308e-07
-5.4649e-07
-7.75622e-07
-9.8711e-07
-1.1816e-06
-1.35976e-06
-1.52027e-06
-1.66303e-06
-1.78725e-06
-1.89315e-06
-1.98171e-06
-2.05205e-06
-2.10573e-06
-2.14408e-06
-2.16722e-06
-2.17812e-06
-2.17722e-06
-2.16517e-06
-2.1439e-06
-2.11537e-06
-2.08108e-06
-2.04201e-06
-2.00077e-06
-1.95817e-06
-1.91599e-06
-1.87626e-06
-1.84001e-06
-1.80901e-06
-1.78615e-06
-1.7725e-06
-1.77254e-06
-1.78511e-06
-1.81678e-06
-1.86932e-06
-1.94325e-06
-2.04637e-06
-2.17753e-06
-2.34154e-06
-2.5429e-06
-2.78284e-06
-3.06351e-06
-3.38448e-06
-3.75379e-06
-4.16404e-06
-4.5993e-06
-5.07963e-06
-5.54895e-06
-6.04582e-06
-6.57653e-06
-6.94312e-06
-7.18987e-06
-7.26091e-06
-7.47485e-06
-7.51597e-06
-7.6164e-06
-7.45613e-06
-7.31951e-06
-6.99627e-06
-6.56823e-06
-6.05225e-06
-5.43693e-06
-4.75286e-06
-4.01915e-06
-3.25339e-06
-2.4701e-06
-1.69492e-06
-9.35547e-07
-2.12703e-07
4.64428e-07
1.08917e-06
1.65323e-06
2.15556e-06
2.59025e-06
2.95858e-06
3.26155e-06
3.50072e-06
3.67765e-06
3.79697e-06
3.86161e-06
3.8765e-06
3.84621e-06
3.77456e-06
3.66608e-06
3.52469e-06
3.35433e-06
3.15876e-06
2.94018e-06
2.70236e-06
2.44894e-06
2.18301e-06
1.90775e-06
1.6278e-06
1.34792e-06
1.06972e-06
7.95673e-07
5.26485e-07
2.6301e-07
8.11578e-09
-2.37217e-07
-4.71757e-07
-6.93575e-07
-9.00782e-07
-1.09127e-06
-1.26533e-06
-1.42339e-06
-1.56444e-06
-1.68845e-06
-1.79486e-06
-1.88393e-06
-1.95648e-06
-2.01208e-06
-2.05204e-06
-2.0776e-06
-2.08913e-06
-2.08908e-06
-2.07815e-06
-2.05713e-06
-2.02776e-06
-1.99188e-06
-1.95104e-06
-1.90628e-06
-1.85983e-06
-1.81264e-06
-1.76639e-06
-1.72296e-06
-1.68343e-06
-1.6494e-06
-1.62342e-06
-1.6066e-06
-1.60273e-06
-1.61127e-06
-1.63765e-06
-1.68375e-06
-1.7504e-06
-1.84419e-06
-1.96476e-06
-2.11647e-06
-2.30345e-06
-2.52715e-06
-2.78986e-06
-3.09149e-06
-3.43884e-06
-3.82615e-06
-4.23979e-06
-4.69553e-06
-5.14591e-06
-5.6215e-06
-6.12596e-06
-6.49557e-06
-6.74765e-06
-6.81962e-06
-7.03591e-06
-7.09112e-06
-7.18817e-06
-7.05251e-06
-6.92212e-06
-6.62036e-06
-6.21928e-06
-5.73109e-06
-5.14988e-06
-4.50284e-06
-3.80832e-06
-3.0835e-06
-2.34331e-06
-1.61129e-06
-8.96119e-07
-2.16938e-07
4.17488e-07
1.00055e-06
1.52482e-06
1.98911e-06
2.3886e-06
2.72445e-06
2.99776e-06
3.21029e-06
3.36402e-06
3.4633e-06
3.51136e-06
3.51292e-06
3.47238e-06
3.39368e-06
3.28117e-06
3.13871e-06
2.97011e-06
2.779e-06
2.56777e-06
2.33994e-06
2.09884e-06
1.84738e-06
1.58851e-06
1.32616e-06
1.06435e-06
8.04788e-07
5.49704e-07
3.00034e-07
5.6733e-08
-1.77819e-07
-4.02603e-07
-6.16465e-07
-8.17776e-07
-1.005e-06
-1.1764e-06
-1.33203e-06
-1.47214e-06
-1.59595e-06
-1.70345e-06
-1.7943e-06
-1.86872e-06
-1.92745e-06
-1.97037e-06
-1.99859e-06
-2.01327e-06
-2.01495e-06
-2.00569e-06
-1.98637e-06
-1.95786e-06
-1.92176e-06
-1.87981e-06
-1.83354e-06
-1.78404e-06
-1.73326e-06
-1.68226e-06
-1.63262e-06
-1.58608e-06
-1.54373e-06
-1.50706e-06
-1.4783e-06
-1.45858e-06
-1.45116e-06
-1.45593e-06
-1.47744e-06
-1.5176e-06
-1.57749e-06
-1.66272e-06
-1.77353e-06
-1.91392e-06
-2.08769e-06
-2.29651e-06
-2.54274e-06
-2.82661e-06
-3.15393e-06
-3.5202e-06
-3.91389e-06
-4.3471e-06
-4.77973e-06
-5.23562e-06
-5.7161e-06
-6.08532e-06
-6.34251e-06
-6.41676e-06
-6.63465e-06
-6.70251e-06
-6.79801e-06
-6.68464e-06
-6.56216e-06
-6.28162e-06
-5.90679e-06
-5.44605e-06
-4.89798e-06
-4.28689e-06
-3.63038e-06
-2.94518e-06
-2.24644e-06
-1.55585e-06
-8.82823e-07
-2.45047e-07
3.49122e-07
8.93176e-07
1.3805e-06
1.80979e-06
2.1772e-06
2.48377e-06
2.73072e-06
2.91995e-06
3.05376e-06
3.13628e-06
3.17088e-06
3.16213e-06
3.11425e-06
3.03119e-06
2.91713e-06
2.77584e-06
2.61097e-06
2.42599e-06
2.22342e-06
2.00651e-06
1.77831e-06
1.54157e-06
1.29896e-06
1.05387e-06
8.09706e-07
5.6818e-07
3.31335e-07
1.0023e-07
-1.24118e-07
-3.3971e-07
-5.45522e-07
-7.40476e-07
-9.2318e-07
-1.09235e-06
-1.24657e-06
-1.38569e-06
-1.50984e-06
-1.61841e-06
-1.71142e-06
-1.78865e-06
-1.85031e-06
-1.89708e-06
-1.92902e-06
-1.94713e-06
-1.95247e-06
-1.9457e-06
-1.92861e-06
-1.90216e-06
-1.8673e-06
-1.82552e-06
-1.77844e-06
-1.72756e-06
-1.67403e-06
-1.61958e-06
-1.56534e-06
-1.5128e-06
-1.46357e-06
-1.41873e-06
-1.37968e-06
-1.34838e-06
-1.32599e-06
-1.31529e-06
-1.31653e-06
-1.33352e-06
-1.36818e-06
-1.42176e-06
-1.49909e-06
-1.60089e-06
-1.73084e-06
-1.89247e-06
-2.08763e-06
-2.3187e-06
-2.58625e-06
-2.89526e-06
-3.24225e-06
-3.6175e-06
-4.03011e-06
-4.44614e-06
-4.88383e-06
-5.34252e-06
-5.70909e-06
-5.97063e-06
-6.04869e-06
-6.26783e-06
-6.34715e-06
-6.44281e-06
-6.34994e-06
-6.23682e-06
-5.97733e-06
-5.62809e-06
-5.19446e-06
-4.67857e-06
-4.10227e-06
-3.48247e-06
-2.83541e-06
-2.17628e-06
-1.52516e-06
-8.92021e-07
-2.93184e-07
2.63362e-07
7.71241e-07
1.22459e-06
1.62201e-06
1.96047e-06
2.24095e-06
2.46474e-06
2.63388e-06
2.75086e-06
2.8196e-06
2.84359e-06
2.82718e-06
2.77445e-06
2.68929e-06
2.5757e-06
2.43732e-06
2.27766e-06
2.1e-06
1.90691e-06
1.70139e-06
1.48626e-06
1.26405e-06
1.03724e-06
8.08726e-07
5.81435e-07
3.5705e-07
1.37435e-07
-7.62799e-08
-2.83054e-07
-4.81178e-07
-6.69641e-07
-8.47439e-07
-1.01336e-06
-1.16632e-06
-1.30511e-06
-1.42949e-06
-1.53946e-06
-1.63457e-06
-1.71481e-06
-1.78007e-06
-1.83057e-06
-1.8669e-06
-1.88927e-06
-1.89857e-06
-1.89581e-06
-1.88173e-06
-1.85786e-06
-1.82526e-06
-1.78491e-06
-1.73824e-06
-1.68673e-06
-1.63186e-06
-1.57481e-06