/*--------------------------------*- C++ -*----------------------------------*\
  =========                 |
  \\      /  F ield         | OpenFOAM: The Open Source CFD Toolbox
   \\    /   O peration     | Website:  https://openfoam.org
    \\  /    A nd           | Version:  9
     \\/     M anipulation  |
\*---------------------------------------------------------------------------*/
FoamFile
{
    format      ascii;
    class       volVectorField;
    location    "3000";
    object      U;
}
// * * * * * * * * * * * * * * * * * * * * * * * * * * * * * * * * * * * * * //

dimensions      [0 1 -1 0 0 0 0];

internalField   nonuniform List<vector> 
14751
(
(0.00186527 6.57858e-08 0)
(0.00186217 -6.75722e-08 0)
(0.0018645 1.10671e-07 2.66816e-27)
(0.00185766 1.26764e-07 -2.66969e-27)
(0.00185162 2.04652e-07 1.00456e-26)
(0.0018399 2.56687e-07 -1.90261e-25)
(0.00182555 3.01238e-07 0)
(0.00180838 3.5183e-07 4.35432e-27)
(0.00178806 3.89576e-07 6.09035e-28)
(0.00176533 4.21061e-07 6.17171e-27)
(0.00174046 4.43406e-07 1.171e-27)
(0.00171377 4.61763e-07 -8.39104e-25)
(0.00168546 4.71746e-07 0)
(0.00165616 4.74352e-07 3.12721e-26)
(0.00162606 4.72666e-07 1.00293e-24)
(0.00159552 4.60649e-07 5.48248e-25)
(0.00156487 4.46204e-07 -3.69214e-26)
(0.00153427 4.2297e-07 3.69585e-26)
(0.00150408 3.99194e-07 6.29629e-25)
(0.0014744 3.70854e-07 6.52446e-25)
(0.00144555 3.42982e-07 0)
(0.00141754 3.14942e-07 7.35175e-25)
(0.00139052 2.88419e-07 -4.37421e-26)
(0.00136461 2.62666e-07 4.5451e-26)
(0.00133995 2.38986e-07 -4.54901e-26)
(0.00131648 2.16436e-07 -1.48619e-24)
(0.00129426 1.9613e-07 0)
(0.00127331 1.76608e-07 -3.78069e-25)
(0.00125362 1.59066e-07 0)
(0.00123527 1.42642e-07 0)
(0.00121824 1.27669e-07 0)
(0.00120252 1.13848e-07 0)
(0.00118809 1.01374e-07 0)
(0.00117494 8.99144e-08 -2.32972e-26)
(0.00116305 7.94848e-08 2.33062e-26)
(0.00115236 6.96247e-08 -7.5604e-25)
(0.0011428 6.11985e-08 7.45761e-25)
(0.00113439 5.37091e-08 7.11277e-25)
(0.00112704 4.70731e-08 0)
(0.00112065 4.03326e-08 0)
(0.00111512 3.45847e-08 -5.15144e-27)
(0.00111053 3.06898e-08 5.15189e-27)
(0.00110688 2.53978e-08 4.86791e-27)
(0.00110422 2.18908e-08 -4.8683e-27)
(0.00110256 1.73867e-08 -2.27567e-27)
(0.0011018 1.34544e-08 2.27581e-27)
(0.00110196 9.70656e-09 1.05135e-27)
(0.00110299 6.39584e-09 2.6234e-25)
(0.0011049 3.02054e-09 0)
(0.00110764 3.82034e-10 -2.27485e-28)
(0.00111116 -2.08997e-09 2.27471e-28)
(0.0011155 -4.75387e-09 4.04708e-28)
(0.00112071 -7.51991e-09 -4.04673e-28)
(0.00112676 -9.97816e-09 -7.05286e-28)
(0.00113363 -1.24351e-08 -1.74386e-25)
(0.00114132 -1.44424e-08 2.50174e-27)
(0.00114981 -1.67734e-08 -1.19726e-27)
(0.00115911 -1.87313e-08 0)
(0.00116916 -2.05563e-08 0)
(0.00118003 -2.07764e-08 0)
(0.00119169 -2.23645e-08 3.65234e-25)
(0.00120407 -2.2035e-08 6.19544e-25)
(0.0012172 -2.42805e-08 2.21849e-27)
(0.00123095 -2.68998e-08 1.39254e-27)
(0.0012453 -2.76835e-08 5.89373e-28)
(0.00126027 -2.84724e-08 -5.38648e-26)
(0.00127584 -2.94412e-08 2.70872e-26)
(0.00129196 -3.09048e-08 0)
(0.00130855 -3.16244e-08 1.02147e-27)
(0.00132565 -3.27213e-08 -1.02093e-27)
(0.0013432 -3.37491e-08 0)
(0.00136116 -3.55039e-08 0)
(0.00137952 -3.72712e-08 0)
(0.00139822 -3.97127e-08 0)
(0.00141724 -4.29833e-08 1.7578e-26)
(0.00143657 -4.72991e-08 -1.0239e-26)
(0.00145618 -5.19266e-08 -2.2253e-26)
(0.00147606 -5.91063e-08 2.29845e-26)
(0.00149616 -6.48925e-08 -2.37972e-26)
(0.0015165 -7.67955e-08 -1.25665e-26)
(0.00153706 -8.52662e-08 2.68785e-26)
(0.00155774 -1.00668e-07 0)
(0.00157867 -1.14821e-07 0)
(0.00159968 -1.32377e-07 -1.4536e-26)
(0.00162081 -1.49798e-07 1.45218e-26)
(0.001642 -1.68344e-07 0)
(0.00166318 -1.84843e-07 0)
(0.00168423 -2.02574e-07 0)
(0.00170505 -2.16269e-07 0)
(0.00172559 -2.32794e-07 -4.30213e-25)
(0.00174557 -2.40621e-07 3.25148e-27)
(0.00176477 -2.4675e-07 0)
(0.00178338 -2.52472e-07 2.59539e-27)
(0.0018005 -2.37263e-07 1.24494e-26)
(0.00181631 -2.40247e-07 -5.9451e-27)
(0.00183065 -2.16064e-07 1.96578e-27)
(0.00184185 -1.89102e-07 4.53473e-26)
(0.00184904 -9.70025e-08 -5.93315e-28)
(0.00186057 -2.20064e-07 -3.45679e-26)
(0.00550995 2.82502e-07 -1.24846e-28)
(0.00549746 -1.02099e-07 0)
(0.00549784 5.93438e-07 5.94875e-24)
(0.00547906 8.39354e-07 2.45436e-25)
(0.00546183 1.2267e-06 -2.51359e-23)
(0.00543173 1.60555e-06 -3.80424e-25)
(0.00539471 1.86697e-06 -2.89485e-25)
(0.00535055 2.15906e-06 0)
(0.00529837 2.40341e-06 5.94065e-23)
(0.00523994 2.61179e-06 -3.72348e-24)
(0.00517591 2.78028e-06 0)
(0.00510715 2.92051e-06 1.21773e-24)
(0.00503424 3.0215e-06 0)
(0.00495865 3.08625e-06 0)
(0.00488093 3.12853e-06 -8.74173e-23)
(0.00480198 3.12742e-06 -1.35624e-23)
(0.00472268 3.11518e-06 1.10857e-22)
(0.00464342 3.06524e-06 2.97046e-23)
(0.00456517 3.00649e-06 -3.07864e-23)
(0.00448825 2.92386e-06 -9.88557e-25)
(0.00441345 2.82852e-06 -1.65848e-23)
(0.00434085 2.72195e-06 1.55973e-23)
(0.00427084 2.60701e-06 0)
(0.00420377 2.48373e-06 0)
(0.00413997 2.35559e-06 0)
(0.00407937 2.22208e-06 2.29093e-24)
(0.00402215 2.08959e-06 -1.29842e-22)
(0.00396836 1.95321e-06 -1.67974e-22)
(0.00391803 1.8197e-06 0)
(0.00387133 1.68549e-06 6.6287e-23)
(0.00382824 1.55355e-06 8.53453e-23)
(0.00378876 1.42334e-06 -7.57734e-23)
(0.00375286 1.29652e-06 0)
(0.0037205 1.17203e-06 9.33452e-24)
(0.00369165 1.05105e-06 -9.30228e-23)
(0.00366614 9.33673e-07 1.49802e-23)
(0.00364383 8.22689e-07 -5.71074e-24)
(0.00362471 7.17071e-07 -3.68986e-23)
(0.00360859 6.18569e-07 0)
(0.00359517 5.25244e-07 0)
(0.00358417 4.38011e-07 4.15487e-24)
(0.00357574 3.54667e-07 -4.15753e-24)
(0.0035699 2.65347e-07 1.39979e-23)
(0.00356677 1.79924e-07 1.96568e-24)
(0.00356638 9.2495e-08 0)
(0.0035685 8.81598e-09 0)
(0.00357313 -7.32665e-08 0)
(0.0035802 -1.52848e-07 -3.73831e-24)
(0.00358965 -2.31022e-07 0)
(0.00360137 -3.03507e-07 0)
(0.00361519 -3.74627e-07 -3.46897e-25)
(0.00363119 -4.49136e-07 3.4672e-25)
(0.00364949 -5.24879e-07 0)
(0.00367001 -5.98836e-07 -4.71231e-24)
(0.00369271 -6.71975e-07 9.01069e-24)
(0.00371755 -7.42944e-07 9.6236e-25)
(0.00374448 -8.14326e-07 -7.43287e-24)
(0.00377347 -8.83005e-07 -8.74045e-25)
(0.00380441 -9.50237e-07 1.04945e-23)
(0.00383736 -1.01296e-06 1.39873e-24)
(0.00387229 -1.0772e-06 -1.62453e-24)
(0.00390898 -1.13479e-06 8.48004e-26)
(0.00394747 -1.19729e-06 0)
(0.00398744 -1.25678e-06 -1.10519e-24)
(0.00402876 -1.30975e-06 1.10316e-24)
(0.00407152 -1.36146e-06 7.80351e-26)
(0.0041156 -1.41085e-06 -3.94733e-26)
(0.00416081 -1.45788e-06 0)
(0.004207 -1.5001e-06 0)
(0.00425418 -1.5408e-06 4.36801e-24)
(0.00430219 -1.57747e-06 0)
(0.00435092 -1.61309e-06 -2.35782e-24)
(0.00440027 -1.64462e-06 2.35134e-24)
(0.00445009 -1.67454e-06 0)
(0.00450032 -1.70376e-06 -2.68865e-26)
(0.00455088 -1.73222e-06 0)
(0.00460166 -1.75783e-06 3.25208e-26)
(0.00465263 -1.78706e-06 0)
(0.00470366 -1.80697e-06 3.79798e-23)
(0.00475474 -1.84164e-06 0)
(0.00480581 -1.8559e-06 -4.04248e-26)
(0.0048566 -1.88821e-06 -4.26459e-23)
(0.0049074 -1.9087e-06 4.35662e-23)
(0.00495776 -1.93358e-06 -4.41507e-23)
(0.00500778 -1.95367e-06 0)
(0.00505729 -1.9719e-06 0)
(0.00510607 -1.97842e-06 0)
(0.00515379 -1.98544e-06 -4.28873e-23)
(0.00520025 -1.97485e-06 -4.16157e-23)
(0.00524518 -1.96696e-06 6.2421e-25)
(0.00528799 -1.91755e-06 1.14613e-24)
(0.00532814 -1.8622e-06 -1.14144e-24)
(0.00536589 -1.79798e-06 1.20294e-25)
(0.00539959 -1.65311e-06 -1.48222e-25)
(0.00542947 -1.5628e-06 -2.60127e-23)
(0.00545524 -1.31601e-06 7.23303e-25)
(0.00547339 -1.02891e-06 -1.65021e-23)
(0.0054854 -7.22015e-07 0)
(0.00550428 -1.0404e-06 4.94959e-26)
(0.00911209 8.3647e-07 6.98044e-28)
(0.00908668 2.96452e-07 -1.34388e-25)
(0.00908117 1.6382e-06 -6.23459e-24)
(0.00905441 2.27466e-06 -3.71133e-23)
(0.00903064 3.14576e-06 2.80127e-23)
(0.00899082 4.0949e-06 -1.77772e-24)
(0.00894096 4.8053e-06 0)
(0.00888111 5.57766e-06 0)
(0.00880985 6.26164e-06 1.67793e-22)
(0.00872939 6.85569e-06 -7.17257e-24)
(0.00864072 7.35493e-06 -2.54741e-22)
(0.00854511 7.7721e-06 -2.99689e-22)
(0.00844348 8.09981e-06 1.5991e-24)
(0.00833778 8.33696e-06 -3.78333e-22)
(0.00822889 8.50692e-06 5.03722e-22)
(0.00811804 8.57195e-06 -2.48217e-23)
(0.00800652 8.59044e-06 2.69182e-22)
(0.00789492 8.51286e-06 5.56761e-23)
(0.00778471 8.39636e-06 0)
(0.00767637 8.21825e-06 4.65011e-22)
(0.00757105 7.99348e-06 -4.83024e-22)
(0.00746891 7.7329e-06 0)
(0.00737057 7.44115e-06 0)
(0.0072765 7.1233e-06 0)
(0.0071872 6.78084e-06 -2.85361e-22)
(0.00710267 6.41756e-06 0)
(0.0070232 6.04946e-06 -1.84003e-22)
(0.00694889 5.66471e-06 1.85731e-22)
(0.00687983 5.28237e-06 -2.99667e-22)
(0.00681624 4.89306e-06 -7.52879e-23)
(0.00675814 4.50465e-06 -9.42873e-23)
(0.00670555 4.11698e-06 9.43114e-23)
(0.00665845 3.73427e-06 3.19523e-22)
(0.00661679 3.35531e-06 -3.73742e-23)
(0.00658053 2.98374e-06 9.28372e-23)
(0.00654946 2.62035e-06 1.82247e-23)
(0.00652336 2.27324e-06 -9.2673e-24)
(0.00650223 1.94103e-06 2.66945e-23)
(0.00648572 1.63047e-06 0)
(0.00647343 1.33739e-06 -6.87175e-23)
(0.00646493 1.06369e-06 -8.28831e-24)
(0.0064603 7.95757e-07 8.29227e-24)
(0.00645951 5.14558e-07 -1.59147e-23)
(0.00646277 2.39133e-07 0)
(0.00647014 -4.04478e-08 2.98265e-23)
(0.00648134 -3.09705e-07 -1.76153e-24)
(0.00649633 -5.73862e-07 1.76053e-24)
(0.00651498 -8.31094e-07 2.49684e-24)
(0.00653721 -1.08112e-06 -5.4975e-24)
(0.0065628 -1.31425e-06 -3.69493e-25)
(0.00659146 -1.54145e-06 5.85123e-24)
(0.0066232 -1.77643e-06 0)
(0.00665818 -2.01649e-06 -1.20975e-24)
(0.00669636 -2.25238e-06 8.1222e-24)
(0.00673762 -2.48423e-06 -1.08891e-23)
(0.00678187 -2.70974e-06 -3.37105e-23)
(0.006829 -2.93336e-06 5.69779e-24)
(0.00687892 -3.1494e-06 3.45019e-24)
(0.00693143 -3.35988e-06 -1.44897e-23)
(0.00698657 -3.55931e-06 3.38518e-25)
(0.00704424 -3.75853e-06 -3.5562e-23)
(0.00710412 -3.9417e-06 3.08083e-23)
(0.00716614 -4.12662e-06 4.55321e-24)
(0.0072299 -4.30129e-06 1.70927e-23)
(0.00729516 -4.45938e-06 1.47824e-23)
(0.00736196 -4.61146e-06 1.07174e-23)
(0.00743005 -4.75331e-06 -1.2463e-24)
(0.00749918 -4.88515e-06 3.25774e-25)
(0.00756904 -5.00161e-06 8.4316e-24)
(0.0076396 -5.10992e-06 -1.61433e-24)
(0.00771058 -5.2042e-06 -6.28984e-24)
(0.00778179 -5.29e-06 3.63656e-24)
(0.00785302 -5.36154e-06 -5.47952e-24)
(0.00792402 -5.42386e-06 1.17633e-23)
(0.00799468 -5.47881e-06 -6.27991e-24)
(0.00806484 -5.52627e-06 0)
(0.00813431 -5.56283e-06 6.45859e-23)
(0.00820298 -5.60007e-06 -1.38632e-22)
(0.00827072 -5.61448e-06 1.10193e-22)
(0.00833738 -5.64804e-06 1.54084e-22)
(0.00840293 -5.63775e-06 -2.03428e-23)
(0.00846693 -5.65355e-06 6.14213e-23)
(0.00852976 -5.64101e-06 -4.20225e-23)
(0.00859084 -5.62853e-06 2.12702e-22)
(0.0086503 -5.59793e-06 1.8158e-22)
(0.00870787 -5.55254e-06 -1.80876e-22)
(0.00876323 -5.47376e-06 0)
(0.00881596 -5.38426e-06 3.10007e-23)
(0.0088658 -5.24817e-06 5.00025e-23)
(0.00891233 -5.10028e-06 -1.48368e-22)
(0.00895487 -4.85786e-06 -1.49516e-22)
(0.00899265 -4.58512e-06 1.01407e-24)
(0.00902607 -4.28363e-06 -1.24851e-22)
(0.00905357 -3.82638e-06 0)
(0.00907536 -3.44934e-06 2.5492e-23)
(0.00909167 -2.76654e-06 -1.37738e-24)
(0.00909899 -2.06393e-06 1.54377e-23)
(0.00910246 -1.43807e-06 2.06549e-25)
(0.00911373 -1.82092e-06 9.42423e-26)
(0.0125413 1.90615e-06 -4.52275e-28)
(0.0125001 1.62577e-06 0)
(0.0124844 3.71915e-06 4.30155e-23)
(0.0124497 5.05011e-06 3.42412e-23)
(0.0124197 6.60532e-06 3.84171e-25)
(0.0123733 8.33799e-06 -2.33733e-22)
(0.0123149 9.74358e-06 0)
(0.0122452 1.12059e-05 0)
(0.0121621 1.25396e-05 -5.84797e-22)
(0.0120681 1.37036e-05 -1.46179e-23)
(0.0119644 1.46925e-05 -2.16796e-22)
(0.0118526 1.55128e-05 2.75182e-22)
(0.0117338 1.61705e-05 -6.1596e-22)
(0.0116103 1.66541e-05 3.2361e-22)
(0.0114832 1.69995e-05 -3.47332e-22)
(0.011354 1.71587e-05 7.40024e-22)
(0.0112242 1.72045e-05 -3.91566e-22)
(0.0110944 1.70756e-05 8.7623e-22)
(0.0109665 1.68507e-05 -5.28072e-23)
(0.0108411 1.65104e-05 -5.05267e-22)
(0.0107196 1.60694e-05 5.80442e-22)
(0.0106021 1.5553e-05 -5.91012e-23)
(0.0104894 1.49686e-05 6.20731e-23)
(0.0103821 1.43294e-05 -6.234e-23)
(0.0102807 1.36335e-05 1.92062e-22)
(0.0101853 1.28941e-05 6.47863e-23)
(0.0100963 1.21358e-05 2.97202e-22)
(0.0100138 1.13416e-05 -5.33113e-22)
(0.00993796 1.05457e-05 2.68546e-22)
(0.00986898 9.73278e-06 5.05344e-22)
(0.00980692 8.91674e-06 -5.7332e-22)
(0.0097518 8.099e-06 3.3735e-23)
(0.00970362 7.28729e-06 -2.68338e-22)
(0.0096623 6.48164e-06 0)
(0.0096278 5.68891e-06 -2.64145e-22)
(0.00959987 4.91118e-06 -1.62018e-23)
(0.00957828 4.16574e-06 2.49691e-25)
(0.00956296 3.45103e-06 -2.21585e-22)
(0.00955351 2.7819e-06 -2.64121e-22)
(0.00954944 2.15189e-06 1.82357e-22)
(0.00955022 1.56533e-06 7.32116e-24)
(0.00955574 9.9066e-07 -7.31441e-24)
(0.00956588 3.94476e-07 0)
(0.0095809 -1.95607e-07 0)
(0.00960093 -7.93132e-07 -2.62082e-23)
(0.00962566 -1.37029e-06 0)
(0.00965503 -1.93524e-06 4.84164e-23)
(0.00968888 -2.48523e-06 0)
(0.00972706 -3.01629e-06 5.51596e-24)
(0.00976932 -3.51089e-06 1.63654e-25)
(0.00981524 -3.98503e-06 -6.15439e-24)
(0.00986464 -4.46666e-06 3.45931e-24)
(0.00991767 -4.96329e-06 -2.2544e-24)
(0.00997438 -5.45461e-06 0)
(0.0100346 -5.93404e-06 -3.61811e-24)
(0.0100982 -6.39866e-06 3.46261e-23)
(0.0101649 -6.85417e-06 -3.30699e-24)
(0.0102346 -7.29331e-06 0)
(0.010307 -7.71783e-06 -3.60277e-23)
(0.0103821 -8.1182e-06 -3.66059e-23)
(0.0104598 -8.51344e-06 2.70395e-23)
(0.0105395 -8.87652e-06 -2.34944e-23)
(0.0106212 -9.23338e-06 4.32118e-23)
(0.0107043 -9.56851e-06 -1.97776e-23)
(0.0107887 -9.86906e-06 -1.2876e-23)
(0.0108741 -1.01533e-05 -6.92711e-24)
(0.0109603 -1.04129e-05 -1.60516e-24)
(0.0110469 -1.06496e-05 -4.30014e-25)
(0.0111335 -1.08526e-05 9.14822e-24)
(0.01122 -1.10346e-05 -3.11423e-23)
(0.011306 -1.11864e-05 -3.19092e-24)
(0.0113912 -1.13154e-05 3.18298e-24)
(0.0114754 -1.14144e-05 -9.6046e-24)
(0.0115582 -1.14908e-05 9.58005e-24)
(0.0116394 -1.15474e-05 -1.24168e-23)
(0.0117188 -1.15845e-05 1.23839e-23)
(0.0117962 -1.15979e-05 -1.85516e-22)
(0.0118712 -1.16036e-05 2.43652e-22)
(0.011944 -1.15706e-05 -3.7387e-22)
(0.012014 -1.15516e-05 -1.36431e-22)
(0.0120815 -1.14657e-05 -2.83727e-22)
(0.0121457 -1.14018e-05 -2.9255e-22)
(0.012207 -1.12912e-05 2.99072e-22)
(0.012265 -1.11688e-05 -1.51645e-22)
(0.0123196 -1.10083e-05 1.525e-22)
(0.0123706 -1.08104e-05 1.52192e-22)
(0.0124176 -1.05495e-05 -3.01109e-22)
(0.0124602 -1.02544e-05 -2.95251e-22)
(0.0124981 -9.87331e-06 -8.79666e-24)
(0.0125307 -9.44943e-06 1.54822e-22)
(0.0125575 -8.87285e-06 1.22147e-22)
(0.0125775 -8.22111e-06 0)
(0.0125914 -7.50847e-06 3.3547e-22)
(0.0125981 -6.56439e-06 -1.26102e-24)
(0.0125978 -5.68584e-06 1.46377e-24)
(0.0125918 -4.38998e-06 1.01356e-24)
(0.0125777 -3.09557e-06 -1.01195e-24)
(0.012563 -1.94934e-06 5.85279e-29)
(0.0125569 -2.05491e-06 -4.29389e-26)
(0.0155621 3.72747e-06 1.30329e-28)
(0.0155039 4.16551e-06 -2.12764e-25)
(0.0154737 7.08495e-06 1.84675e-25)
(0.0154278 9.36982e-06 0)
(0.0153873 1.17646e-05 1.56813e-22)
(0.0153308 1.44126e-05 2.00412e-22)
(0.0152618 1.66937e-05 0)
(0.0151811 1.89752e-05 0)
(0.0150866 2.10913e-05 3.34668e-22)
(0.0149806 2.2945e-05 3.92005e-22)
(0.0148643 2.45237e-05 4.11203e-22)
(0.0147397 2.58171e-05 0)
(0.0146081 2.68528e-05 1.01795e-21)
(0.0144718 2.76069e-05 0)
(0.0143323 2.81293e-05 5.88331e-22)
(0.0141911 2.83742e-05 -6.2524e-22)
(0.0140498 2.84157e-05 -5.75628e-22)
(0.0139091 2.81906e-05 -7.77245e-22)
(0.013771 2.7787e-05 -7.22705e-22)
(0.0136363 2.72036e-05 0)
(0.0135062 2.64516e-05 -7.7536e-22)
(0.0133811 2.55727e-05 0)
(0.0132618 2.45781e-05 8.17437e-22)
(0.0131487 2.34911e-05 8.34476e-22)
(0.0130425 2.23077e-05 -5.33817e-23)
(0.0129434 2.10531e-05 -5.8036e-25)
(0.0128516 1.97581e-05 5.41061e-23)
(0.0127674 1.84054e-05 -4.38134e-22)
(0.0126909 1.70427e-05 -5.50658e-23)
(0.0126222 1.56514e-05 -3.85956e-22)
(0.0125615 1.42516e-05 4.6819e-22)
(0.0125086 1.28473e-05 -2.7495e-23)
(0.0124637 1.14507e-05 -2.71796e-23)
(0.0124267 1.00648e-05 2.71635e-23)
(0.0123973 8.69948e-06 2.14109e-22)
(0.0123755 7.35956e-06 4.22538e-22)
(0.0123609 6.07315e-06 0)
(0.0123534 4.83637e-06 2.16831e-22)
(0.0123527 3.67138e-06 1.87363e-22)
(0.0123583 2.57473e-06 -8.56245e-23)
(0.0123697 1.55783e-06 -1.20425e-23)
(0.0123865 5.73925e-07 1.14076e-23)
(0.0124084 -4.33774e-07 -1.13814e-23)
(0.0124357 -1.44197e-06 0)
(0.0124685 -2.46229e-06 0)
(0.0125067 -3.4502e-06 0)
(0.01255 -4.41508e-06 -3.86173e-23)
(0.0125983 -5.35463e-06 0)
(0.0126515 -6.26014e-06 1.81188e-23)
(0.0127094 -7.10311e-06 -5.3484e-25)
(0.0127714 -7.89569e-06 9.57941e-25)
(0.0128373 -8.68238e-06 8.43182e-25)
(0.0129068 -9.49823e-06 1.56688e-24)
(0.0129803 -1.03115e-05 -3.35772e-24)
(0.0130575 -1.10993e-05 -4.80671e-23)
(0.0131383 -1.1859e-05 0)
(0.0132222 -1.25969e-05 -4.8091e-24)
(0.0133092 -1.33054e-05 4.74947e-25)
(0.0133989 -1.3985e-05 3.70019e-23)
(0.0134911 -1.46222e-05 2.88556e-23)
(0.0135857 -1.5244e-05 -2.90013e-24)
(0.0136821 -1.58135e-05 -1.9704e-24)
(0.0137802 -1.63625e-05 -3.03521e-23)
(0.0138794 -1.6874e-05 3.04737e-24)
(0.0139794 -1.73283e-05 -3.04513e-24)
(0.0140799 -1.775e-05 -1.30274e-24)
(0.0141806 -1.81273e-05 1.58371e-23)
(0.0142811 -1.84642e-05 -4.64753e-25)
(0.0143809 -1.87436e-05 -1.19396e-23)
(0.0144797 -1.89839e-05 2.04681e-23)
(0.0145771 -1.91727e-05 -1.44084e-24)
(0.0146728 -1.93192e-05 5.20247e-24)
(0.0147663 -1.94158e-05 0)
(0.0148574 -1.94714e-05 1.44977e-22)
(0.0149457 -1.94894e-05 -9.08487e-24)
(0.015031 -1.94711e-05 0)
(0.0151129 -1.94123e-05 9.42035e-23)
(0.0151911 -1.93305e-05 -1.01516e-22)
(0.0152655 -1.91944e-05 2.16024e-22)
(0.0153358 -1.90592e-05 0)
(0.015402 -1.88382e-05 2.67201e-22)
(0.0154634 -1.8622e-05 2.45908e-22)
(0.0155204 -1.83407e-05 -2.82051e-22)
(0.0155724 -1.80252e-05 0)
(0.0156193 -1.76442e-05 -2.7341e-22)
(0.0156609 -1.71953e-05 -2.4127e-22)
(0.0156967 -1.66485e-05 2.71079e-22)
(0.0157263 -1.60318e-05 4.85971e-22)
(0.0157493 -1.52842e-05 -2.36672e-22)
(0.0157652 -1.44496e-05 -7.48276e-24)
(0.0157734 -1.34072e-05 2.23359e-22)
(0.0157732 -1.22299e-05 -2.10728e-22)
(0.0157652 -1.09501e-05 -1.90818e-22)
(0.0157488 -9.37336e-06 0)
(0.0157245 -7.81297e-06 -1.48746e-22)
(0.0156945 -5.78772e-06 -1.28532e-24)
(0.0156575 -3.74899e-06 -8.77209e-25)
(0.0156221 -1.85796e-06 -5.08337e-29)
(0.0155956 -1.33863e-06 -3.73145e-26)
(0.0180408 6.53595e-06 -1.10516e-28)
(0.0179638 8.0301e-06 1.10858e-28)
(0.0179146 1.18172e-05 -3.23056e-23)
(0.017852 1.52191e-05 -9.61261e-23)
(0.0177944 1.85473e-05 1.32148e-22)
(0.0177215 2.21716e-05 -3.36952e-22)
(0.017636 2.54208e-05 0)
(0.017539 2.85654e-05 4.84033e-22)
(0.0174291 3.14922e-05 5.6704e-22)
(0.0173084 3.40526e-05 -3.24803e-22)
(0.0171783 3.62417e-05 -7.02607e-22)
(0.0170405 3.80291e-05 -7.97519e-22)
(0.0168961 3.94533e-05 -1.23424e-21)
(0.0167477 4.04661e-05 0)
(0.016597 4.11322e-05 4.8232e-22)
(0.0164455 4.14253e-05 6.55587e-23)
(0.0162947 4.14148e-05 4.72497e-22)
(0.0161454 4.10342e-05 -7.18134e-23)
(0.0159997 4.03727e-05 7.32658e-22)
(0.0158584 3.94616e-05 -1.28886e-21)
(0.0157226 3.8308e-05 6.25941e-22)
(0.0155928 3.69692e-05 -8.12121e-23)
(0.0154696 3.54618e-05 -5.75704e-22)
(0.0153537 3.38192e-05 -1.25399e-21)
(0.0152455 3.20392e-05 -8.42596e-23)
(0.0151453 3.01581e-05 6.87272e-22)
(0.0150533 2.82114e-05 -4.34733e-23)
(0.0149697 2.61857e-05 7.40738e-22)
(0.0148946 2.41391e-05 -6.9933e-22)
(0.0148282 2.20538e-05 -4.37e-23)
(0.0147705 1.99549e-05 -6.54271e-22)
(0.0147215 1.785e-05 0)
(0.0146811 1.5756e-05 0)
(0.0146492 1.36802e-05 2.12337e-23)
(0.0146257 1.16345e-05 -2.34693e-25)
(0.0146104 9.62409e-06 -6.65151e-22)
(0.0146031 7.6854e-06 -2.05771e-23)
(0.0146037 5.81643e-06 3.2059e-22)
(0.0146118 4.04741e-06 -3.13708e-22)
(0.014627 2.37964e-06 0)
(0.014649 8.36447e-07 1.39962e-22)
(0.0146771 -6.29557e-07 9.17831e-24)
(0.0147107 -2.10485e-06 8.65077e-24)
(0.0147499 -3.59611e-06 -8.63246e-24)
(0.0147951 -5.10796e-06 -4.02644e-24)
(0.0148459 -6.57555e-06 7.88727e-24)
(0.0149024 -8.00754e-06 5.67041e-23)
(0.0149643 -9.40304e-06 1.76923e-24)
(0.0150315 -1.07519e-05 -1.76454e-24)
(0.0151038 -1.20176e-05 -3.98999e-25)
(0.0151809 -1.3215e-05 3.98497e-25)
(0.0152628 -1.43979e-05 0)
(0.0153491 -1.55994e-05 4.38834e-23)
(0.0154395 -1.67794e-05 0)
(0.0155337 -1.79169e-05 3.79851e-23)
(0.0156315 -1.90083e-05 -7.00279e-23)
(0.0157326 -2.00599e-05 0)
(0.0158367 -2.10652e-05 -5.80187e-23)
(0.0159433 -2.20225e-05 3.06111e-24)
(0.0160523 -2.29149e-05 -3.0627e-24)
(0.0161634 -2.37756e-05 -8.00656e-23)
(0.016276 -2.45607e-05 -6.82113e-23)
(0.0163899 -2.53048e-05 0)
(0.0165045 -2.59911e-05 2.44719e-24)
(0.0166194 -2.65939e-05 -3.77015e-23)
(0.0167344 -2.71413e-05 1.74439e-24)
(0.0168489 -2.76199e-05 -3.4914e-23)
(0.0169625 -2.80357e-05 2.02445e-25)
(0.0170746 -2.83659e-05 -1.86066e-23)
(0.017185 -2.86328e-05 -3.04975e-24)
(0.0172931 -2.88231e-05 3.05488e-24)
(0.0173985 -2.8946e-05 0)
(0.0175009 -2.89952e-05 -8.80203e-23)
(0.0175996 -2.89796e-05 -1.25067e-22)
(0.0176946 -2.89036e-05 7.44478e-24)
(0.0177853 -2.87704e-05 0)
(0.0178715 -2.85779e-05 3.29939e-22)
(0.0179528 -2.83445e-05 -4.17396e-23)
(0.0180291 -2.804e-05 -3.12e-22)
(0.0180999 -2.77131e-05 -4.69217e-23)
(0.0181652 -2.72834e-05 2.40361e-23)
(0.0182244 -2.68277e-05 2.57374e-23)
(0.0182777 -2.6286e-05 -4.4307e-22)
(0.0183245 -2.56791e-05 0)
(0.0183646 -2.49746e-05 4.02505e-22)
(0.0183977 -2.41656e-05 2.55447e-22)
(0.0184234 -2.32203e-05 -2.66632e-23)
(0.018441 -2.21602e-05 -1.97263e-22)
(0.0184504 -2.09224e-05 1.92653e-22)
(0.018451 -1.95457e-05 1.26009e-23)
(0.0184422 -1.79135e-05 -1.88378e-22)
(0.0184233 -1.60808e-05 5.30038e-22)
(0.0183951 -1.41e-05 0)
(0.0183575 -1.1774e-05 0)
(0.0183111 -9.39933e-06 1.28028e-22)
(0.0182587 -6.56493e-06 -1.06305e-22)
(0.0181998 -3.65802e-06 -7.46102e-25)
(0.0181431 -8.40996e-07 4.32947e-29)
(0.0180947 5.56478e-07 -3.19895e-26)
(0.0200263 1.0542e-05 0)
(0.0199288 1.33208e-05 -2.47597e-23)
(0.0198579 1.80208e-05 1.52593e-25)
(0.0197751 2.26371e-05 -8.15248e-23)
(0.0196964 2.69686e-05 -4.43249e-22)
(0.0196034 3.16105e-05 2.80884e-22)
(0.0194981 3.58798e-05 3.44384e-22)
(0.0193819 3.98984e-05 -4.05251e-22)
(0.019254 4.36268e-05 -4.63894e-22)
(0.0191167 4.6884e-05 -1.72615e-23)
(0.0189714 4.9669e-05 5.98052e-22)
(0.0188196 5.193e-05 6.36863e-22)
(0.0186625 5.3715e-05 7.35509e-22)
(0.0185024 5.49392e-05 -4.47382e-23)
(0.0183412 5.56817e-05 -7.90863e-22)
(0.0181806 5.59437e-05 -8.36199e-22)
(0.0180221 5.5781e-05 -8.78548e-22)
(0.0178668 5.51597e-05 5.85293e-23)
(0.0177161 5.41653e-05 -5.84648e-23)
(0.0175709 5.28463e-05 1.0491e-21)
(0.0174321 5.12086e-05 9.52854e-22)
(0.0173003 4.93236e-05 0)
(0.0171762 4.72142e-05 0)
(0.0170601 4.49242e-05 5.40595e-22)
(0.0169526 4.24555e-05 -6.8937e-23)
(0.0168538 3.98547e-05 -5.54779e-22)
(0.016764 3.71616e-05 1.04471e-22)
(0.0166833 3.4369e-05 1.08708e-21)
(0.0166119 3.1543e-05 5.27096e-22)
(0.0165498 2.8669e-05 6.32208e-22)
(0.016497 2.57776e-05 1.05073e-21)
(0.0164535 2.28803e-05 5.57537e-22)
(0.0164192 1.9996e-05 5.87631e-22)
(0.016394 1.71353e-05 -5.81367e-22)
(0.0163778 1.43135e-05 3.39505e-23)
(0.0163703 1.15383e-05 7.82179e-22)
(0.0163715 8.85407e-06 1.6475e-23)
(0.0163811 6.25887e-06 -2.56678e-22)
(0.016399 3.78662e-06 4.86866e-22)
(0.0164246 1.44349e-06 -2.29806e-22)
(0.0164578 -7.36978e-07 -1.19487e-22)
(0.0164982 -2.80205e-06 2.25157e-22)
(0.0165451 -4.84089e-06 1.40815e-23)
(0.0165981 -6.88248e-06 -6.92865e-24)
(0.0166573 -8.94023e-06 1.05436e-22)
(0.0167224 -1.09464e-05 -1.01581e-22)
(0.0167935 -1.29099e-05 -4.87866e-23)
(0.0168702 -1.48217e-05 0)
(0.0169524 -1.66787e-05 -3.3801e-23)
(0.0170401 -1.84434e-05 3.40046e-25)
(0.0171331 -2.01188e-05 2.01114e-23)
(0.0172313 -2.175e-05 0)
(0.0173343 -2.33769e-05 1.14304e-26)
(0.0174415 -2.49631e-05 0)
(0.0175525 -2.64853e-05 0)
(0.0176669 -2.79381e-05 1.14226e-22)
(0.0177845 -2.9327e-05 5.2305e-23)
(0.0179049 -3.06474e-05 4.74337e-23)
(0.0180276 -3.18958e-05 8.5201e-23)
(0.0181523 -3.30529e-05 7.10671e-23)
(0.0182787 -3.4155e-05 1.35915e-22)
(0.0184062 -3.51545e-05 5.28645e-23)
(0.0185344 -3.60854e-05 9.36807e-23)
(0.0186629 -3.69323e-05 7.67388e-23)
(0.0187911 -3.76653e-05 8.30734e-23)
(0.0189186 -3.8314e-05 3.70201e-23)
(0.019045 -3.88639e-05 1.88734e-23)
(0.0191697 -3.93226e-05 4.53555e-25)
(0.0192922 -3.96638e-05 3.12415e-23)
(0.019412 -3.99118e-05 3.24317e-23)
(0.0195287 -4.00531e-05 0)
(0.0196418 -4.00968e-05 1.32309e-22)
(0.0197508 -4.00382e-05 2.42382e-22)
(0.0198553 -3.98869e-05 -1.07349e-23)
(0.0199549 -3.96504e-05 -1.39961e-23)
(0.0200493 -3.93344e-05 -1.44655e-24)
(0.0201381 -3.89357e-05 -2.43855e-22)
(0.020221 -3.84695e-05 0)
(0.0202976 -3.7913e-05 2.98973e-22)
(0.0203677 -3.73045e-05 2.01517e-23)
(0.020431 -3.65768e-05 7.81933e-25)
(0.0204869 -3.57834e-05 -4.26583e-23)
(0.0205355 -3.48801e-05 3.73062e-22)
(0.0205762 -3.38722e-05 3.8059e-22)
(0.0206089 -3.27298e-05 -7.46846e-22)
(0.0206331 -3.14419e-05 -2.26246e-23)
(0.0206484 -2.9977e-05 3.8393e-22)
(0.0206542 -2.83469e-05 -3.56101e-22)
(0.0206503 -2.64926e-05 0)
(0.020636 -2.44445e-05 -5.11345e-24)
(0.0206111 -2.20996e-05 2.82155e-25)
(0.0205747 -1.94895e-05 -2.94977e-22)
(0.0205278 -1.66861e-05 0)
(0.0204705 -1.35057e-05 2.48847e-22)
(0.0204037 -1.02051e-05 -1.56106e-24)
(0.0203303 -6.48045e-06 9.26314e-23)
(0.0202504 -2.59645e-06 0)
(0.0201723 1.2781e-06 0)
(0.0201016 3.75315e-06 2.71804e-26)
(0.0216091 1.59566e-05 -5.12749e-26)
(0.0214917 2.01788e-05 1.02839e-25)
(0.0213989 2.58243e-05 -9.05204e-23)
(0.0212952 3.16949e-05 2.75891e-22)
(0.0211948 3.70604e-05 1.87605e-22)
(0.0210815 4.27319e-05 -4.7423e-22)
(0.0209568 4.80387e-05 -2.88119e-22)
(0.0208221 5.29141e-05 6.7528e-22)
(0.0206771 5.73933e-05 -7.87559e-22)
(0.0205242 6.12805e-05 8.8505e-22)
(0.0203647 6.45864e-05 1.5855e-23)
(0.0202005 6.72382e-05 -5.03216e-23)
(0.0200332 6.9289e-05 3.44188e-23)
(0.0198647 7.06505e-05 0)
(0.0196965 7.14055e-05 -1.35414e-21)
(0.0195303 7.15659e-05 7.35612e-22)
(0.0193676 7.11865e-05 7.28376e-22)
(0.0192093 7.02615e-05 4.84887e-23)
(0.0190567 6.88601e-05 1.48072e-21)
(0.0189105 6.70548e-05 5.01337e-23)
(0.0187718 6.48537e-05 -8.3951e-22)
(0.0186409 6.23406e-05 8.59936e-22)
(0.0185184 5.95457e-05 0)
(0.0184048 5.65229e-05 0)
(0.0183005 5.32802e-05 0)
(0.0182055 4.98737e-05 0)
(0.0181202 4.63475e-05 0)
(0.0180447 4.27031e-05 -9.83377e-22)
(0.0179789 3.90111e-05 5.78415e-23)
(0.017923 3.52618e-05 -4.63373e-22)
(0.0178769 3.14902e-05 -4.90777e-22)
(0.0178405 2.77117e-05 -1.3496e-21)
(0.0178139 2.39484e-05 -4.55828e-22)
(0.0177968 2.02156e-05 9.02434e-22)
(0.0177891 1.65315e-05 0)
(0.0177907 1.29053e-05 -4.39221e-22)
(0.0178014 9.38589e-06 4.31964e-22)
(0.0178209 5.97484e-06 4.23885e-22)
(0.0178491 2.70825e-06 -2.20337e-22)
(0.0178856 -4.07376e-07 2.15537e-22)
(0.0179303 -3.33559e-06 1.21944e-23)
(0.0179829 -6.11865e-06 -1.21445e-23)
(0.0180435 -8.84433e-06 -1.86605e-22)
(0.0181113 -1.15349e-05 5.55596e-24)
(0.0181856 -1.41947e-05 -9.828e-23)
(0.0182659 -1.67946e-05 8.96283e-23)
(0.0183524 -1.93496e-05 0)
(0.0184448 -2.18236e-05 -1.18706e-24)
(0.0185426 -2.42282e-05 1.97598e-23)
(0.0186458 -2.65416e-05 -5.52956e-25)
(0.0187545 -2.87581e-05 5.89358e-27)
(0.0188682 -3.09013e-05 -1.92146e-24)
(0.0189864 -3.29961e-05 -2.96935e-23)
(0.0191087 -3.50117e-05 1.80536e-24)
(0.0192346 -3.69352e-05 3.11508e-24)
(0.0193638 -3.8759e-05 -5.10222e-23)
(0.0194958 -4.04868e-05 -4.9128e-23)
(0.0196301 -4.21166e-05 5.2434e-24)
(0.0197662 -4.36446e-05 -7.58476e-23)
(0.0199039 -4.50512e-05 -5.9274e-23)
(0.0200427 -4.63726e-05 -1.6627e-22)
(0.020182 -4.75595e-05 0)
(0.0203215 -4.86438e-05 -7.85002e-23)
(0.0204605 -4.9611e-05 -6.25615e-23)
(0.0205986 -5.04293e-05 -9.37179e-23)
(0.0207353 -5.11281e-05 -3.12896e-23)
(0.02087 -5.16932e-05 1.6154e-23)
(0.0210022 -5.21331e-05 0)
(0.0211314 -5.24198e-05 -1.3378e-23)
(0.0212572 -5.25787e-05 2.72923e-23)
(0.0213789 -5.25974e-05 7.61086e-23)
(0.0214961 -5.24843e-05 -2.10821e-22)
(0.0216084 -5.22381e-05 -2.67028e-22)
(0.0217152 -5.18704e-05 0)
(0.0218164 -5.13901e-05 -1.91499e-22)
(0.0219114 -5.08037e-05 1.19014e-23)
(0.022 -5.01099e-05 0)
(0.0220817 -4.93208e-05 2.37755e-22)
(0.0221562 -4.84176e-05 1.62916e-23)
(0.0222231 -4.74248e-05 7.89471e-25)
(0.0222823 -4.62954e-05 -1.71576e-23)
(0.0223329 -4.50548e-05 5.81152e-22)
(0.0223753 -4.36788e-05 5.78496e-22)
(0.0224086 -4.21555e-05 -2.66584e-22)
(0.0224329 -4.04599e-05 2.88895e-22)
(0.0224475 -3.85765e-05 1.92484e-23)
(0.022452 -3.64756e-05 -3.26717e-22)
(0.022446 -3.41582e-05 3.03099e-22)
(0.0224293 -3.1573e-05 0)
(0.0224012 -2.87401e-05 5.71296e-22)
(0.0223613 -2.55755e-05 0)
(0.0223091 -2.20862e-05 0)
(0.0222455 -1.83619e-05 0)
(0.0221707 -1.42416e-05 -2.105e-22)
(0.0220858 -9.92963e-06 -1.55506e-24)
(0.0219938 -5.24447e-06 1.08188e-24)
(0.0218947 -3.01401e-07 -6.80875e-25)
(0.0217966 4.71648e-06 -4.27345e-23)
(0.0217052 8.39558e-06 -6.31214e-29)
(0.0228656 2.28303e-05 4.35646e-26)
(0.0227308 2.85777e-05 1.76841e-23)
(0.022618 3.51707e-05 7.68633e-23)
(0.0224952 4.22662e-05 -2.33573e-22)
(0.0223751 4.8636e-05 1.40886e-24)
(0.0222439 5.52752e-05 3.99429e-22)
(0.0221032 6.15381e-05 -4.84424e-22)
(0.0219545 6.72182e-05 -5.75272e-22)
(0.0217971 7.2416e-05 6.58946e-22)
(0.0216331 7.68943e-05 -3.97953e-25)
(0.0214641 8.06684e-05 0)
(0.0212921 8.36507e-05 8.64039e-22)
(0.0211185 8.59112e-05 2.90296e-23)
(0.0209454 8.73552e-05 1.00485e-21)
(0.0207739 8.80584e-05 1.13945e-21)
(0.0206056 8.80473e-05 7.49745e-23)
(0.0204418 8.7367e-05 -1.30297e-21)
(0.0202833 8.60531e-05 1.28244e-21)
(0.0201315 8.41712e-05 -1.33205e-21)
(0.0199869 8.18041e-05 1.3765e-21)
(0.0198506 7.89634e-05 -1.41622e-21)
(0.0197229 7.5745e-05 -7.25544e-22)
(0.0196043 7.21863e-05 1.52772e-21)
(0.0194952 6.83512e-05 8.00379e-25)
(0.0193959 6.42552e-05 -4.73572e-23)
(0.0193066 5.99633e-05 0)
(0.0192275 5.55241e-05 0)
(0.0191585 5.09482e-05 -7.81522e-22)
(0.0190998 4.63092e-05 -7.34325e-22)
(0.0190513 4.16041e-05 -9.78217e-23)
(0.0190131 3.68724e-05 4.88288e-23)
(0.018985 3.2134e-05 7.76902e-22)
(0.0189669 2.74131e-05 -2.40066e-23)
(0.0189587 2.2729e-05 -3.57945e-22)
(0.0189603 1.81033e-05 0)
(0.0189715 1.3549e-05 0)
(0.0189919 9.11831e-06 -7.55216e-22)
(0.0190215 4.81471e-06 -3.14666e-22)
(0.0190601 6.75023e-07 3.41021e-22)
(0.0191073 -3.29555e-06 -1.08783e-23)