/*--------------------------------*- C++ -*----------------------------------*\
  =========                 |
  \\      /  F ield         | OpenFOAM: The Open Source CFD Toolbox
   \\    /   O peration     | Website:  https://openfoam.org
    \\  /    A nd           | Version:  9
     \\/     M anipulation  |
\*---------------------------------------------------------------------------*/
FoamFile
{
    format      ascii;
    class       volVectorField;
    location    "3000";
    object      UMean;
}
// * * * * * * * * * * * * * * * * * * * * * * * * * * * * * * * * * * * * * //

dimensions      [0 1 -1 0 0 0 0];

internalField   nonuniform List<vector> 
14751
(
(0.00210918 1.1603e-09 0)
(0.00211799 -2.76484e-07 0)
(0.00213843 -1.10938e-07 9.13957e-28)
(0.00214929 -1.82447e-07 -9.27312e-28)
(0.00216415 -1.19511e-07 3.74682e-27)
(0.00217546 -9.91745e-08 -7.25917e-26)
(0.00218499 -4.92063e-08 0)
(0.00218993 2.21852e-08 1.79669e-27)
(0.00219194 6.11654e-08 2.66153e-28)
(0.0021932 6.68264e-08 2.61453e-27)
(0.00219451 7.07845e-08 4.82236e-28)
(0.00219558 7.64682e-08 -3.61514e-25)
(0.00219627 8.00506e-08 0)
(0.00219694 7.97664e-08 1.3579e-26)
(0.00219754 7.95759e-08 4.39247e-25)
(0.0021981 7.26853e-08 2.41509e-25)
(0.00219846 7.0692e-08 -1.63218e-26)
(0.0021983 5.81501e-08 1.65424e-26)
(0.00219878 3.76236e-08 2.83095e-25)
(0.00219966 1.96787e-08 2.96002e-25)
(0.00219895 4.63993e-08 0)
(0.00219659 3.69228e-08 3.41278e-25)
(0.00219647 -5.71114e-09 -2.0508e-26)
(0.0021984 1.51806e-08 2.17061e-26)
(0.00219994 1.39571e-08 -2.19113e-26)
(0.00220141 4.28504e-09 -7.31646e-25)
(0.00220251 1.51167e-08 0)
(0.00220248 2.33476e-08 -1.94338e-25)
(0.00220185 2.03334e-08 0)
(0.00220092 1.48366e-08 0)
(0.00219957 7.5008e-09 0)
(0.00219775 -3.08816e-09 0)
(0.00219569 -1.84364e-08 0)
(0.0021934 -3.03746e-08 -1.40155e-26)
(0.00219051 -3.64938e-08 1.41019e-26)
(0.00218647 -4.11343e-08 -4.74317e-25)
(0.00218124 -4.73506e-08 4.79794e-25)
(0.00217511 -5.44764e-08 4.69695e-25)
(0.00216838 -6.6547e-08 0)
(0.00216127 -8.58631e-08 0)
(0.00215383 -1.11558e-07 -3.71766e-27)
(0.00214623 -1.41289e-07 3.73376e-27)
(0.00213821 -1.73331e-07 3.72716e-27)
(0.00212931 -2.01983e-07 -3.74633e-27)
(0.00211917 -2.3006e-07 -1.87049e-27)
(0.0021075 -2.57242e-07 1.88182e-27)
(0.00209423 -2.81118e-07 9.40462e-28)
(0.00207889 -2.94367e-07 2.41214e-25)
(0.00206125 -3.02668e-07 0)
(0.00204173 -2.99074e-07 -2.34601e-28)
(0.00202257 -2.89499e-07 2.35492e-28)
(0.00200703 -2.62964e-07 4.58326e-28)
(0.00199607 -2.49526e-07 -4.6e-28)
(0.0019849 -2.24578e-07 -8.88922e-28)
(0.00197507 -2.74087e-07 -2.2687e-25)
(0.00196822 -2.96129e-07 3.46793e-27)
(0.00195756 -2.87919e-07 -1.72134e-27)
(0.00194592 -3.37851e-07 0)
(0.00193792 -3.55139e-07 0)
(0.00193169 -3.55095e-07 0)
(0.00192461 -3.72539e-07 7.90495e-25)
(0.00191708 -3.83662e-07 1.53399e-24)
(0.00190933 -3.61576e-07 5.94684e-27)
(0.00190118 -3.3855e-07 5.64191e-27)
(0.0018929 -3.26532e-07 5.32259e-27)
(0.00188434 -3.12979e-07 -3.69064e-25)
(0.00187563 -3.06753e-07 3.47539e-25)
(0.00186775 -3.16979e-07 0)
(0.00186089 -3.30488e-07 -9.61594e-27)
(0.00185397 -3.30899e-07 9.65146e-27)
(0.00184623 -3.28436e-07 0)
(0.00183874 -3.40483e-07 0)
(0.0018325 -3.5281e-07 0)
(0.00182752 -3.54727e-07 0)
(0.00182356 -3.47276e-07 -2.95256e-26)
(0.00182025 -3.36129e-07 1.33589e-26)
(0.00181718 -3.22032e-07 2.49219e-26)
(0.0018142 -3.07272e-07 -2.41219e-26)
(0.00181156 -2.90353e-07 2.33621e-26)
(0.00181006 -2.81235e-07 1.07144e-26)
(0.00181018 -2.60287e-07 -1.8357e-26)
(0.00181161 -2.40023e-07 0)
(0.00181442 -2.22932e-07 0)
(0.00181859 -2.13722e-07 5.62407e-27)
(0.00182428 -2.02536e-07 -5.75911e-27)
(0.00183172 -1.98595e-07 0)
(0.00184147 -2.03749e-07 0)
(0.00185356 -2.15911e-07 0)
(0.00186776 -2.26283e-07 0)
(0.00188368 -2.39352e-07 2.16641e-26)
(0.00190138 -2.52171e-07 -9.21328e-29)
(0.00192061 -2.65457e-07 0)
(0.00194222 -2.96739e-07 3.01789e-28)
(0.00196449 -2.90437e-07 1.67092e-27)
(0.0019883 -3.29719e-07 -1.20206e-27)
(0.00201211 -3.0141e-07 3.8387e-28)
(0.00203592 -3.29133e-07 1.14383e-26)
(0.00205643 -2.33831e-07 -1.56213e-28)
(0.0020849 -4.77581e-07 -1.27219e-26)
(0.00631153 -1.15438e-06 -2.71296e-30)
(0.00634845 -1.79518e-06 0)
(0.00640545 -1.14001e-06 1.89343e-24)
(0.00644395 -1.22778e-06 8.1145e-26)
(0.00649093 -1.02046e-06 -8.89286e-24)
(0.00653088 -8.283e-07 -1.37392e-25)
(0.00656555 -5.03694e-07 -1.11624e-25)
(0.0065912 -1.56893e-07 0)
(0.00661251 -7.80174e-09 2.45559e-23)
(0.00663189 1.10293e-08 -1.57304e-24)
(0.00665052 1.40269e-08 0)
(0.00666815 2.18016e-08 5.30179e-25)
(0.00668478 2.21968e-08 0)
(0.00670131 5.94297e-09 0)
(0.0067177 -6.44104e-09 -3.98632e-23)
(0.00673385 -2.65925e-08 -6.30417e-24)
(0.00674912 -9.07239e-09 5.21724e-23)
(0.00676245 -4.28021e-08 1.41683e-23)
(0.00677613 -1.14871e-07 -1.50958e-23)
(0.00678864 -1.04242e-07 -4.9349e-25)
(0.00679708 6.71488e-08 -8.4603e-24)
(0.00680248 2.42686e-08 8.15333e-24)
(0.00681029 -2.47483e-07 0)
(0.00682215 -2.70068e-07 0)
(0.00683378 -2.67889e-07 0)
(0.00684379 -2.8027e-07 1.31373e-24)
(0.006852 -2.13131e-07 -7.63686e-23)
(0.00685788 -1.60954e-07 -1.01538e-22)
(0.00686251 -1.52227e-07 0)
(0.00686605 -1.45406e-07 4.23534e-23)
(0.00686815 -1.34658e-07 5.60872e-23)
(0.0068685 -1.30108e-07 -5.12779e-23)
(0.00686742 -1.44596e-07 0)
(0.00686509 -1.36976e-07 6.73893e-24)
(0.00686078 -8.22179e-08 -6.86955e-23)
(0.00685306 -3.8526e-09 1.13595e-23)
(0.00684158 6.30467e-08 -4.43866e-24)
(0.00682718 1.06325e-07 -2.9695e-23)
(0.00681053 1.16891e-07 0)
(0.00679198 1.01749e-07 0)
(0.00677137 8.33008e-08 3.66065e-24)
(0.00674867 8.36961e-08 -3.69403e-24)
(0.00672299 1.23824e-07 1.29359e-23)
(0.00669333 2.23163e-07 1.85567e-24)
(0.0066591 3.53927e-07 0)
(0.00662017 5.01336e-07 0)
(0.00657715 6.73577e-07 0)
(0.00652973 8.91048e-07 -4.16034e-24)
(0.00647746 1.09627e-06 0)
(0.0064208 1.18717e-06 0)
(0.00636395 9.75992e-07 -4.55825e-25)
(0.00631541 6.13632e-07 4.62299e-25)
(0.00628023 4.39008e-07 0)
(0.0062461 4.864e-07 -7.19873e-24)
(0.00621464 2.07082e-07 1.45828e-23)
(0.00618884 2.26548e-07 1.70228e-24)
(0.00615443 5.53481e-07 -1.35105e-23)
(0.00611765 3.72539e-07 -1.6569e-24)
(0.0060882 1.31917e-07 2.21419e-23)
(0.0060647 1.31298e-07 3.10292e-24)
(0.00604017 1.93781e-07 -4.35025e-24)
(0.00601373 2.37406e-07 5.40222e-26)
(0.00598694 2.99761e-07 0)
(0.00596113 3.15378e-07 -5.1431e-24)
(0.0059359 3.11009e-07 5.16006e-24)
(0.00590979 3.45257e-07 6.04957e-25)
(0.00588339 3.3616e-07 -5.79418e-25)
(0.00585893 2.54641e-07 0)
(0.0058367 2.1381e-07 0)
(0.00581468 2.74957e-07 -3.20432e-23)
(0.00579222 3.27618e-07 0)
(0.00577086 2.75414e-07 6.96794e-24)
(0.0057518 1.89194e-07 -7.05702e-24)
(0.00573501 1.04742e-07 0)
(0.00572047 3.55072e-08 4.70302e-26)
(0.00570765 -5.78636e-09 0)
(0.00569559 -1.63846e-08 -4.09375e-26)
(0.00568384 -3.05044e-08 0)
(0.00567288 -7.98419e-08 -3.57588e-23)
(0.00566409 -2.08711e-07 0)
(0.00565894 -3.31008e-07 2.87353e-26)
(0.00565763 -4.54493e-07 2.6316e-23)
(0.00566053 -5.69958e-07 -2.33013e-23)
(0.00566685 -6.97032e-07 2.03806e-23)
(0.0056767 -8.23611e-07 0)
(0.00569069 -9.89751e-07 0)
(0.00570991 -1.18406e-06 0)
(0.00573438 -1.37423e-06 9.05261e-24)
(0.00576383 -1.5306e-06 6.4889e-24)
(0.00579745 -1.67856e-06 -6.47019e-26)
(0.0058354 -1.8146e-06 -3.12958e-26)
(0.00587697 -1.9493e-06 3.93968e-26)
(0.00592388 -2.11919e-06 7.38081e-27)
(0.00597296 -2.14776e-06 -9.48755e-27)
(0.00602608 -2.3076e-06 -3.33122e-24)
(0.00608012 -2.20272e-06 1.06746e-25)
(0.00613548 -2.2381e-06 -3.45429e-24)
(0.00618787 -2.02623e-06 0)
(0.0062548 -2.78134e-06 1.68438e-26)
(0.0104487 -3.55456e-06 -4.2526e-28)
(0.0105107 -4.62786e-06 -4.59396e-26)
(0.0106022 -3.3638e-06 -2.35305e-24)
(0.0106746 -3.37446e-06 -1.44629e-23)
(0.0107598 -2.98588e-06 1.1541e-23)
(0.0108382 -2.53526e-06 -7.61742e-25)
(0.0109091 -1.79536e-06 0)
(0.0109706 -1.13172e-06 0)
(0.0110278 -8.43959e-07 7.98438e-23)
(0.011082 -7.67703e-07 -3.49107e-24)
(0.0111341 -7.28344e-07 -1.26072e-22)
(0.0111841 -7.0031e-07 -1.50825e-22)
(0.0112318 -6.86563e-07 7.23672e-25)
(0.0112784 -7.108e-07 -1.96229e-22)
(0.0113239 -7.24845e-07 2.64902e-22)
(0.011368 -7.23558e-07 -1.32727e-23)
(0.0114095 -6.17058e-07 1.45561e-22)
(0.0114464 -5.84427e-07 3.05541e-23)
(0.0114808 -6.00519e-07 0)
(0.0115103 -4.18053e-07 2.62859e-22)
(0.0115329 1.56884e-08 -2.77952e-22)
(0.0115507 1.13121e-08 0)
(0.0115678 -5.07362e-07 0)
(0.0115881 -6.03925e-07 0)
(0.0116078 -5.5528e-07 -1.76825e-22)
(0.0116233 -4.86929e-07 0)
(0.0116354 -3.03371e-07 -1.18858e-22)
(0.0116446 -1.79029e-07 1.22231e-22)
(0.0116522 -1.16152e-07 -2.01511e-22)
(0.0116578 -2.70249e-08 -5.174e-23)
(0.0116607 9.61203e-08 -6.63497e-23)
(0.0116602 2.28001e-07 6.78378e-23)
(0.0116564 3.25299e-07 2.36086e-22)
(0.0116496 4.69766e-07 -2.83549e-23)
(0.0116391 7.32706e-07 7.23493e-23)
(0.0116229 1.07645e-06 1.47463e-23)
(0.0116004 1.40738e-06 -7.4557e-24)
(0.0115724 1.6727e-06 2.27254e-23)
(0.0115401 1.8726e-06 0)
(0.0115036 2.04642e-06 -6.14614e-23)
(0.0114625 2.25892e-06 -7.68393e-24)
(0.0114163 2.54434e-06 7.73009e-24)
(0.011364 2.92395e-06 -1.54026e-23)
(0.0113047 3.40882e-06 0)
(0.0112387 3.90998e-06 3.05086e-23)
(0.0111668 4.37724e-06 -1.88035e-24)
(0.0110904 4.83678e-06 1.88822e-24)
(0.0110102 5.35408e-06 2.80271e-24)
(0.010926 5.84356e-06 -6.47981e-24)
(0.0108384 6.08808e-06 -4.59488e-25)
(0.0107511 5.61223e-06 7.60081e-24)
(0.0106727 4.41186e-06 0)
(0.0106143 3.5939e-06 -1.80896e-24)
(0.0105627 3.52358e-06 1.2717e-23)
(0.010515 2.88051e-06 -1.79318e-23)
(0.0104726 3.03233e-06 -5.90795e-23)
(0.0104199 3.82157e-06 1.02644e-23)
(0.0103658 3.38841e-06 6.6001e-24)
(0.0103194 2.65783e-06 -3.11581e-23)
(0.0102816 2.53476e-06 2.36824e-25)
(0.0102438 2.68786e-06 -9.23099e-23)
(0.0102039 2.76818e-06 8.89742e-23)
(0.0101657 2.72055e-06 1.58288e-23)
(0.010132 2.60797e-06 7.09202e-23)
(0.0100987 2.59879e-06 7.74455e-23)
(0.0100634 2.66755e-06 8.25846e-23)
(0.0100279 2.56605e-06 -1.74634e-23)
(0.0099953 2.30068e-06 8.48553e-24)
(0.00996567 2.14615e-06 -1.24201e-22)
(0.00993724 2.16928e-06 1.5061e-23)
(0.00990962 2.15022e-06 2.73934e-23)
(0.00988372 1.94479e-06 -1.32953e-23)
(0.00986059 1.67559e-06 1.15261e-23)
(0.00984012 1.40634e-06 -2.22913e-23)
(0.00982204 1.17854e-06 1.07605e-23)
(0.00980537 1.03386e-06 0)
(0.00978901 9.60745e-07 -6.96634e-23)
(0.00977255 8.75884e-07 1.26858e-22)
(0.00975653 7.04833e-07 -8.58705e-23)
(0.00974236 3.53523e-07 -1.02266e-22)
(0.00973166 -3.9723e-08 1.04954e-23)
(0.00972524 -4.72173e-07 -3.04092e-23)
(0.00972419 -8.75095e-07 1.70992e-23)
(0.00972646 -1.26829e-06 -7.26065e-23)
(0.00973217 -1.6676e-06 -5.06568e-23)
(0.00974228 -2.15631e-06 4.10121e-23)
(0.00975815 -2.70241e-06 0)
(0.0097798 -3.23394e-06 -4.10293e-24)
(0.00980715 -3.69274e-06 -4.14401e-24)
(0.00983936 -4.11754e-06 4.99399e-24)
(0.00987689 -4.50717e-06 -1.40358e-24)
(0.00991887 -4.87313e-06 7.23372e-26)
(0.00996769 -5.27965e-06 -1.18656e-23)
(0.0100202 -5.41321e-06 0)
(0.010079 -5.73517e-06 4.58015e-24)
(0.0101409 -5.55398e-06 -2.79393e-25)
(0.0102078 -5.61595e-06 3.99553e-24)
(0.0102771 -5.25821e-06 5.81646e-26)
(0.0103664 -6.49983e-06 3.63784e-26)
(0.0142055 -7.5158e-06 7.643e-28)
(0.0142844 -8.79646e-06 0)
(0.0144 -6.92559e-06 1.87441e-23)
(0.0144997 -6.62451e-06 1.53278e-23)
(0.0146151 -6.00101e-06 1.83622e-25)
(0.0147245 -5.16868e-06 -1.13244e-22)
(0.0148254 -3.85709e-06 0)
(0.014918 -2.81289e-06 0)
(0.0150057 -2.28828e-06 -3.06678e-22)
(0.0150889 -2.04257e-06 -7.75402e-24)
(0.0151686 -1.85363e-06 -1.17108e-22)
(0.0152445 -1.70965e-06 1.5037e-22)
(0.0153167 -1.59608e-06 -3.40516e-22)
(0.0153861 -1.54981e-06 1.80796e-22)
(0.0154526 -1.49066e-06 -1.95993e-22)
(0.015516 -1.37408e-06 4.21376e-22)
(0.0155752 -1.05256e-06 -2.24842e-22)
(0.0156269 -7.68169e-07 5.07045e-22)
(0.0156722 -5.28545e-07 -3.08417e-23)
(0.0157092 1.43665e-09 -2.98729e-22)
(0.0157373 8.13826e-07 3.47706e-22)
(0.0157589 9.72915e-07 -3.57804e-23)
(0.0157771 3.03873e-07 3.83069e-23)
(0.0157969 1.5241e-07 -3.88394e-23)
(0.0158156 2.86516e-07 1.21991e-22)
(0.0158286 5.13876e-07 4.16498e-23)
(0.0158368 8.40609e-07 1.94739e-22)
(0.0158422 1.0258e-06 -3.53596e-22)
(0.0158457 1.14832e-06 1.80838e-22)
(0.0158465 1.3543e-06 3.44907e-22)
(0.0158436 1.65116e-06 -3.97494e-22)
(0.0158361 1.98688e-06 2.36671e-23)
(0.0158239 2.27539e-06 -1.93346e-22)
(0.0158072 2.62633e-06 0)
(0.0157856 3.17128e-06 -1.99706e-22)
(0.0157573 3.87609e-06 -1.2661e-23)
(0.0157214 4.57564e-06 -1.51756e-26)
(0.015679 5.15489e-06 -1.80967e-22)
(0.0156314 5.63679e-06 -2.21111e-22)
(0.0155787 6.09294e-06 1.56644e-22)
(0.0155203 6.62877e-06 6.50794e-24)
(0.0154555 7.29462e-06 -6.53171e-24)
(0.0153832 8.10146e-06 0)
(0.0153032 9.02012e-06 0)
(0.0152162 9.88325e-06 -2.54455e-23)
(0.0151234 1.0606e-05 0)
(0.0150267 1.12292e-05 4.95378e-23)
(0.0149272 1.18772e-05 0)
(0.0148256 1.24838e-05 6.04856e-24)
(0.0147227 1.27314e-05 1.87813e-25)
(0.0146219 1.19045e-05 -7.46044e-24)
(0.0145307 9.70681e-06 4.45219e-24)
(0.0144616 7.78051e-06 -3.01462e-24)
(0.0144064 7.23829e-06 0)
(0.0143562 6.20375e-06 -5.74381e-24)
(0.0143084 6.51721e-06 5.67786e-23)
(0.0142504 7.62435e-06 -5.5903e-24)
(0.014192 6.86598e-06 0)
(0.0141399 5.56262e-06 -7.21997e-23)
(0.0140959 5.14288e-06 -7.98781e-23)
(0.0140518 5.23982e-06 6.67479e-23)
(0.0140069 5.1661e-06 -6.44979e-23)
(0.0139668 4.76303e-06 1.40531e-22)
(0.0139334 4.37405e-06 -7.60302e-23)
(0.0138998 4.34159e-06 -6.42277e-23)
(0.0138636 4.39615e-06 -4.61526e-23)
(0.0138281 4.09415e-06 -1.48278e-23)
(0.0137962 3.51811e-06 1.32205e-23)
(0.0137678 3.10467e-06 -1.27427e-22)
(0.0137413 2.93418e-06 2.03114e-22)
(0.0137162 2.71085e-06 1.07845e-23)
(0.013693 2.24308e-06 -1.077e-23)
(0.0136726 1.69967e-06 1.8615e-23)
(0.0136547 1.17787e-06 -1.85839e-23)
(0.0136387 7.52222e-07 1.57418e-23)
(0.0136235 4.75499e-07 -1.56942e-23)
(0.0136081 3.17824e-07 1.76668e-22)
(0.0135922 1.36763e-07 -1.97805e-22)
(0.0135763 -1.85599e-07 2.5084e-22)
(0.0135619 -7.72635e-07 7.67911e-23)
(0.0135505 -1.46813e-06 1.32394e-22)
(0.013543 -2.24747e-06 1.12661e-22)
(0.0135404 -2.9404e-06 -9.42936e-23)
(0.0135398 -3.56393e-06 3.82254e-23)
(0.0135414 -4.20547e-06 -2.94823e-23)
(0.0135466 -4.99354e-06 -2.13762e-23)
(0.0135568 -5.86754e-06 2.73685e-23)
(0.013572 -6.71195e-06 1.32594e-23)
(0.0135921 -7.44198e-06 -1.32536e-25)
(0.0136164 -8.1155e-06 6.14687e-24)
(0.0136456 -8.73833e-06 9.90038e-24)
(0.013679 -9.31629e-06 0)
(0.0137193 -9.93586e-06 5.3601e-23)
(0.0137638 -1.01773e-05 -2.66896e-25)
(0.0138155 -1.06225e-05 3.31808e-25)
(0.0138722 -1.04079e-05 2.85035e-25)
(0.0139377 -1.05104e-05 -3.06799e-25)
(0.0140112 -1.00173e-05 2.1368e-29)
(0.0141089 -1.15511e-05 -1.83943e-26)
(0.0172868 -1.2416e-05 4.80877e-29)
(0.0173746 -1.35723e-05 -9.04355e-26)
(0.0175015 -1.11394e-05 7.892e-26)
(0.0176161 -1.03285e-05 0)
(0.0177475 -9.40479e-06 7.62751e-23)
(0.0178728 -8.10284e-06 1.00349e-22)
(0.0179895 -6.13379e-06 0)
(0.0180992 -4.66282e-06 0)
(0.0182031 -3.80919e-06 1.78031e-22)
(0.0183015 -3.29583e-06 2.1064e-22)
(0.0183951 -2.85872e-06 2.22892e-22)
(0.0184836 -2.50853e-06 0)
(0.0185672 -2.20936e-06 5.60545e-22)
(0.0186466 -2.01095e-06 0)
(0.0187214 -1.81185e-06 3.29387e-22)
(0.0187916 -1.52333e-06 -3.52748e-22)
(0.0188564 -9.21351e-07 -3.26947e-22)
(0.0189123 -2.56655e-07 -4.44349e-22)
(0.018959 3.75609e-07 -4.16394e-22)
(0.0189952 1.34035e-06 0)
(0.0190214 2.57359e-06 -4.57673e-22)
(0.0190404 2.94132e-06 0)
(0.0190549 2.16126e-06 4.95342e-22)
(0.0190699 1.94577e-06 5.12947e-22)
(0.0190832 2.16159e-06 -3.34575e-23)
(0.01909 2.5705e-06 -6.27504e-25)
(0.0190915 3.01784e-06 3.45657e-23)
(0.01909 3.20679e-06 -2.84276e-22)
(0.0190865 3.33114e-06 -3.63065e-23)
(0.0190804 3.61225e-06 -2.56532e-22)
(0.0190705 4.06376e-06 3.1511e-22)
(0.0190559 4.59713e-06 -1.86925e-23)
(0.0190363 5.0827e-06 -1.90227e-23)
(0.0190115 5.65873e-06 1.91572e-23)
(0.0189813 6.49235e-06 1.55659e-22)
(0.0189444 7.56023e-06 3.13972e-22)
(0.0188999 8.62607e-06 0)
(0.0188491 9.50915e-06 1.69277e-22)
(0.018793 1.0246e-05 1.49878e-22)
(0.0187318 1.09662e-05 -7.00698e-23)
(0.0186646 1.18342e-05 -1.00145e-23)
(0.0185904 1.29062e-05 9.87987e-24)
(0.0185084 1.41519e-05 -9.89904e-24)
(0.0184184 1.55005e-05 0)
(0.0183214 1.67053e-05 0)
(0.018219 1.76491e-05 0)
(0.0181131 1.8393e-05 -3.73512e-23)
(0.0180052 1.90826e-05 0)
(0.0178966 1.96585e-05 1.86489e-23)
(0.0177885 1.9729e-05 -5.66348e-25)
(0.0176842 1.83895e-05 1.09926e-24)
(0.0175901 1.50514e-05 1.06454e-24)
(0.0175185 1.17178e-05 2.11882e-24)
(0.0174659 1.03923e-05 -4.46737e-24)
(0.0174194 9.01286e-06 -6.95159e-23)
(0.0173724 9.57671e-06 0)
(0.0173158 1.09685e-05 -8.07273e-24)
(0.017259 9.90606e-06 3.0289e-25)
(0.0172072 8.0783e-06 6.9688e-23)
(0.0171619 7.35475e-06 5.98146e-23)
(0.0171165 7.33922e-06 -7.05654e-24)
(0.017072 6.93984e-06 -6.48275e-24)
(0.0170349 5.98829e-06 -9.31065e-23)
(0.0170051 5.25673e-06 1.24781e-23)
(0.0169741 5.21546e-06 -1.25024e-23)
(0.0169406 5.21428e-06 -1.13138e-23)
(0.0169087 4.62679e-06 1.98374e-22)
(0.016881 3.66263e-06 -1.06901e-23)
(0.0168571 2.92226e-06 1.56116e-22)
(0.0168354 2.49222e-06 -1.28546e-22)
(0.0168152 2.01327e-06 -1.14329e-24)
(0.0167966 1.25248e-06 -1.65215e-23)
(0.0167805 4.02106e-07 0)
(0.0167666 -3.9842e-07 -2.3235e-22)
(0.0167543 -1.03841e-06 1.31247e-23)
(0.0167425 -1.46379e-06 0)
(0.0167304 -1.73262e-06 -8.33352e-23)
(0.0167177 -2.03313e-06 7.46842e-23)
(0.0167051 -2.53141e-06 -1.3205e-22)
(0.0166938 -3.37462e-06 0)
(0.0166852 -4.40065e-06 -1.09121e-22)
(0.0166805 -5.53163e-06 -8.01007e-23)
(0.0166796 -6.48813e-06 7.56017e-23)
(0.0166793 -7.28307e-06 0)
(0.0166802 -8.12136e-06 3.93311e-23)
(0.0166837 -9.17475e-06 2.19663e-23)
(0.0166914 -1.03351e-05 -1.17976e-23)
(0.0167029 -1.14372e-05 5.30041e-25)
(0.0167186 -1.23771e-05 -1.02114e-23)
(0.0167375 -1.32339e-05 -5.29902e-25)
(0.0167606 -1.40321e-05 2.76237e-23)
(0.0167874 -1.47624e-05 -3.42036e-23)
(0.0168205 -1.55209e-05 -3.82484e-23)
(0.0168578 -1.58241e-05 0)
(0.0169027 -1.63027e-05 -4.07952e-23)
(0.0169534 -1.60634e-05 -3.76659e-25)
(0.017015 -1.61638e-05 -2.94296e-25)
(0.0170875 -1.55036e-05 -1.97491e-29)
(0.017186 -1.71247e-05 -1.6667e-26)
(0.0196911 -1.76719e-05 -4.17448e-29)
(0.0197803 -1.84759e-05 4.45532e-29)
(0.0199088 -1.55651e-05 -1.47904e-23)
(0.0200279 -1.41462e-05 -4.48935e-23)
(0.0201632 -1.28774e-05 6.35097e-23)
(0.0202918 -1.1076e-05 -1.66179e-22)
(0.0204124 -8.46503e-06 0)
(0.0205271 -6.57656e-06 2.48835e-22)
(0.0206354 -5.36582e-06 2.94824e-22)
(0.0207379 -4.56097e-06 -1.70228e-22)
(0.020835 -3.85364e-06 -3.70443e-22)
(0.0209263 -3.27246e-06 -4.23054e-22)
(0.021012 -2.75933e-06 -6.59327e-22)
(0.0210924 -2.36689e-06 0)
(0.0211673 -1.98365e-06 2.62133e-22)
(0.0212363 -1.48974e-06 3.59131e-23)
(0.0212994 -5.76148e-07 2.61213e-22)
(0.0213531 5.51006e-07 -3.99578e-23)
(0.0213964 1.68323e-06 4.11287e-22)
(0.0214279 3.14744e-06 -7.33046e-22)
(0.0214492 4.83469e-06 3.60886e-22)
(0.0214631 5.43322e-06 -4.74232e-23)
(0.0214719 4.55868e-06 -3.41097e-22)
(0.0214806 4.30233e-06 -7.53447e-22)
(0.0214873 4.63314e-06 -5.13283e-23)
(0.021487 5.26626e-06 4.25661e-22)
(0.0214813 5.84793e-06 -2.74047e-23)
(0.021473 6.03137e-06 4.70734e-22)
(0.0214629 6.13802e-06 -4.49252e-22)
(0.0214508 6.46908e-06 -2.85512e-23)
(0.0214357 7.04643e-06 -4.30891e-22)
(0.0214163 7.76805e-06 0)
(0.0213921 8.46601e-06 0)
(0.0213624 9.29271e-06 1.47896e-23)
(0.0213273 1.04218e-05 8.83526e-27)
(0.0212858 1.1857e-05 -4.80882e-22)
(0.0212373 1.32932e-05 -1.51197e-23)
(0.0211829 1.44696e-05 2.42759e-22)
(0.0211235 1.54656e-05 -2.43179e-22)
(0.021059 1.64866e-05 0)
(0.0209884 1.77367e-05 1.13633e-22)
(0.0209105 1.92627e-05 7.56139e-24)
(0.0208243 2.09956e-05 7.4044e-24)
(0.0207302 2.27999e-05 -7.42068e-24)
(0.0206293 2.43597e-05 -3.60857e-24)
(0.0205235 2.5536e-05 7.16264e-24)
(0.0204148 2.6378e-05 5.2727e-23)
(0.0203048 2.70502e-05 1.70734e-24)
(0.0201949 2.75028e-05 -1.72717e-24)
(0.0200866 2.72786e-05 -4.1513e-25)
(0.0199835 2.5309e-05 4.22597e-25)
(0.0198915 2.07077e-05 0)
(0.0198219 1.57283e-05 5.29536e-23)
(0.0197748 1.33596e-05 0)
(0.019735 1.16576e-05 5.20201e-23)
(0.0196927 1.25345e-05 -1.01242e-22)
(0.0196412 1.42111e-05 0)
(0.0195887 1.28831e-05 -9.53742e-23)
(0.01954 1.05851e-05 5.64103e-24)
(0.0194968 9.58401e-06 -5.69346e-24)
(0.0194541 9.38079e-06 -1.72055e-22)
(0.0194146 8.49563e-06 -1.65337e-22)
(0.0193838 6.87519e-06 0)
(0.0193595 5.82325e-06 9.24827e-24)
(0.0193331 5.79674e-06 -1.62826e-22)
(0.019305 5.67001e-06 8.83757e-24)
(0.0192795 4.70923e-06 -4.07192e-22)
(0.0192585 3.29686e-06 3.06892e-23)
(0.0192414 2.18518e-06 2.14964e-22)
(0.0192263 1.46857e-06 1.29558e-23)
(0.0192122 7.30735e-07 -1.29746e-23)
(0.0191991 -3.23031e-07 0)
(0.019188 -1.48742e-06 1.61766e-22)
(0.0191786 -2.57254e-06 1.7824e-22)
(0.0191707 -3.44459e-06 -9.47711e-24)
(0.0191632 -4.04333e-06 0)
(0.0191557 -4.45413e-06 -2.49886e-22)
(0.0191477 -4.9043e-06 2.62036e-23)
(0.0191399 -5.60574e-06 1.59929e-22)
(0.0191333 -6.73137e-06 1.95608e-23)
(0.0191295 -8.12793e-06 -8.82985e-24)
(0.0191291 -9.60415e-06 -5.94843e-24)
(0.0191312 -1.07774e-05 8.72263e-23)
(0.0191327 -1.16951e-05 0)
(0.0191346 -1.27035e-05 -3.44819e-23)
(0.0191386 -1.39972e-05 -9.62737e-24)
(0.0191457 -1.54158e-05 -1.79635e-25)
(0.0191558 -1.67428e-05 -9.7286e-24)
(0.0191691 -1.78595e-05 1.67414e-23)
(0.0191849 -1.88644e-05 1.42424e-24)
(0.0192042 -1.98086e-05 -3.03266e-23)
(0.0192266 -2.06615e-05 1.04015e-22)
(0.0192547 -2.15145e-05 0)
(0.0192868 -2.18565e-05 0)
(0.0193263 -2.23073e-05 3.79166e-23)
(0.0193719 -2.20373e-05 -3.44739e-23)
(0.0194289 -2.20661e-05 -2.60244e-25)
(0.0194976 -2.1186e-05 1.71531e-29)
(0.0195922 -2.27174e-05 -1.43296e-26)
(0.0215589 -2.30325e-05 0)
(0.0216451 -2.33604e-05 -9.68019e-24)
(0.0217696 -2.00528e-05 6.58544e-26)
(0.021887 -1.79864e-05 -3.67908e-23)
(0.0220193 -1.63288e-05 -2.05827e-22)
(0.0221442 -1.40068e-05 1.33823e-22)
(0.0222622 -1.07997e-05 1.67858e-22)
(0.022375 -8.50875e-06 -2.01524e-22)
(0.0224816 -6.94154e-06 -2.33433e-22)
(0.0225822 -5.83477e-06 -8.73515e-24)
(0.0226774 -4.83974e-06 3.05625e-22)
(0.0227668 -3.99851e-06 3.27691e-22)
(0.0228502 -3.23925e-06 3.8129e-22)
(0.022928 -2.60753e-06 -2.34375e-23)
(0.0229996 -1.98251e-06 -4.18021e-22)
(0.0230648 -1.24031e-06 -4.46188e-22)
(0.0231239 -4.37532e-09 -4.73197e-22)
(0.0231739 1.62817e-06 3.17704e-23)
(0.023213 3.35653e-06 -3.20594e-23)
(0.0232396 5.39505e-06 5.83443e-22)
(0.0232559 7.57894e-06 5.37702e-22)
(0.0232649 8.44073e-06 0)
(0.0232684 7.50094e-06 0)
(0.0232716 7.23401e-06 3.1879e-22)
(0.0232723 7.71355e-06 -4.13855e-23)
(0.023266 8.58447e-06 -3.37605e-22)
(0.0232548 9.28038e-06 6.44232e-23)
(0.0232416 9.43347e-06 6.79332e-22)
(0.0232271 9.49528e-06 3.33379e-22)
(0.0232114 9.81763e-06 4.04919e-22)
(0.0231937 1.04829e-05 6.81367e-22)
(0.023172 1.13801e-05 3.67095e-22)
(0.0231457 1.23082e-05 3.92913e-22)
(0.0231138 1.34169e-05 -3.96024e-22)
(0.0230764 1.48587e-05 2.35298e-23)
(0.0230333 1.66574e-05 5.55252e-22)
(0.022984 1.84442e-05 1.18864e-23)
(0.0229295 1.99093e-05 -1.90607e-22)
(0.0228703 2.1188e-05 3.69753e-22)
(0.022806 2.25447e-05 -1.78629e-22)
(0.0227354 2.42215e-05 -9.50007e-23)
(0.022657 2.6257e-05 1.82638e-22)
(0.0225701 2.85291e-05 1.1662e-23)
(0.0224755 3.08094e-05 -5.80976e-24)
(0.0223746 3.27272e-05 9.10088e-23)
(0.0222694 3.41052e-05 -8.95873e-23)
(0.0221619 3.4995e-05 -4.40098e-23)
(0.0220536 3.55986e-05 0)
(0.0219457 3.58807e-05 -3.21965e-23)
(0.0218402 3.5279e-05 3.3251e-25)
(0.0217412 3.25547e-05 2.08352e-23)
(0.0216544 2.65736e-05 0)
(0.0215897 1.97302e-05 -2.82644e-26)
(0.0215494 1.60679e-05 0)
(0.0215178 1.40481e-05 0)
(0.0214819 1.53199e-05 1.57464e-22)
(0.0214361 1.73392e-05 7.64373e-23)
(0.0213883 1.5806e-05 7.38449e-23)
(0.0213435 1.30757e-05 1.42319e-22)
(0.0213038 1.17529e-05 1.2902e-22)
(0.0212661 1.12295e-05 2.73511e-22)
(0.0212336 9.69712e-06 1.1923e-22)
(0.02121 7.39052e-06 2.4299e-22)
(0.0211907 6.07985e-06 2.38863e-22)
(0.0211691 6.03648e-06 3.30037e-22)
(0.0211473 5.68879e-06 2.08341e-22)
(0.0211286 4.2866e-06 1.97219e-22)
(0.0211146 2.38399e-06 -1.11458e-23)
(0.0211041 8.8028e-07 -3.33021e-22)
(0.021095 -9.57315e-08 -1.59703e-22)
(0.0210858 -1.05104e-06 0)
(0.0210771 -2.37487e-06 -2.80631e-22)
(0.0210698 -3.844e-06 -3.81906e-22)
(0.0210639 -5.22128e-06 1.49966e-23)
(0.0210594 -6.34324e-06 1.21769e-23)
(0.0210556 -7.14485e-06 -1.38752e-24)
(0.0210519 -7.73104e-06 1.53304e-22)
(0.021048 -8.36066e-06 0)
(0.0210445 -9.2884e-06 -1.2294e-22)
(0.021042 -1.07201e-05 -5.80339e-24)
(0.0210423 -1.24981e-05 1.13331e-24)
(0.0210452 -1.42776e-05 7.89727e-24)
(0.0210491 -1.5604e-05 -4.80755e-23)
(0.0210518 -1.66053e-05 -2.80642e-23)
(0.0210544 -1.77628e-05 2.1474e-23)
(0.0210586 -1.92672e-05 -6.9131e-25)
(0.0210651 -2.09061e-05 2.00648e-23)
(0.0210738 -2.24181e-05 -3.14737e-23)
(0.0210851 -2.36747e-05 0)
(0.0210985 -2.47912e-05 -8.49184e-25)
(0.0211148 -2.58483e-05 -4.93585e-26)
(0.0211337 -2.67957e-05 -6.41464e-23)
(0.0211578 -2.77118e-05 0)
(0.0211857 -2.80787e-05 6.87797e-23)
(0.0212206 -2.84624e-05 -4.83454e-25)
(0.0212615 -2.81502e-05 3.03597e-23)
(0.0213135 -2.8048e-05 0)
(0.021377 -2.69111e-05 0)
(0.0214652 -2.82094e-05 1.19053e-26)
(0.0230181 -2.83401e-05 -4.4022e-26)
(0.0230999 -2.81416e-05 8.59608e-26)
(0.0232189 -2.45165e-05 -3.83245e-23)
(0.0233321 -2.18018e-05 1.19466e-22)
(0.0234588 -1.97215e-05 8.36416e-23)
(0.0235778 -1.68831e-05 -2.16992e-22)
(0.0236914 -1.31384e-05 -1.35463e-22)
(0.0238004 -1.04595e-05 3.24371e-22)
(0.0239034 -8.54419e-06 -3.83487e-22)
(0.0240009 -7.13791e-06 4.35231e-22)
(0.0240932 -5.84851e-06 7.842e-24)
(0.0241797 -4.72822e-06 -2.51379e-23)
(0.0242604 -3.69681e-06 1.74069e-23)
(0.0243354 -2.78969e-06 0)
(0.0244041 -1.87211e-06 -6.97271e-22)
(0.0244658 -8.27908e-07 3.83339e-22)
(0.0245208 7.5124e-07 3.83543e-22)
(0.0245672 2.91227e-06 2.57299e-23)
(0.0246028 5.3044e-06 7.94214e-22)
(0.0246256 7.97608e-06 2.72941e-23)
(0.0246377 1.06897e-05 -4.64673e-22)
(0.0246429 1.18451e-05 4.8279e-22)
(0.0246423 1.08742e-05 0)
(0.0246412 1.06181e-05 0)
(0.0246374 1.12755e-05 0)
(0.0246268 1.23838e-05 0)
(0.024612 1.3158e-05 0)
(0.0245959 1.32459e-05 -6.05452e-22)
(0.0245795 1.31991e-05 3.59518e-23)
(0.0245625 1.34561e-05 -2.92936e-22)
(0.0245439 1.41906e-05 -3.14105e-22)
(0.0245213 1.52759e-05 -8.77361e-22)
(0.0244941 1.64614e-05 -3.00828e-22)
(0.0244613 1.78798e-05 6.05707e-22)
(0.0244234 1.96308e-05 0)
(0.0243807 2.17509e-05 -3.06954e-22)
(0.0243329 2.38423e-05 3.08191e-22)
(0.0242805 2.55881e-05 3.09146e-22)
(0.0242237 2.71511e-05 -1.64567e-22)
(0.0241618 2.88702e-05 1.64524e-22)
(0.0240931 3.10337e-05 9.56934e-24)
(0.024016 3.36526e-05 -9.74757e-24)
(0.0239304 3.65007e-05 -1.5142e-22)
(0.0238374 3.92685e-05 4.63801e-24)
(0.0237389 4.1511e-05 -8.30813e-23)
(0.0236369 4.30408e-05 7.72828e-23)
(0.0235327 4.3963e-05 0)
(0.0234277 4.44968e-05 -1.0812e-24)
(0.0233233 4.45781e-05 1.83514e-23)
(0.0232218 4.34909e-05 -5.33089e-25)
(0.0231282 3.98639e-05 -1.42298e-26)
(0.023048 3.2378e-05 -2.06485e-24)
(0.0229892 2.34975e-05 -3.33705e-23)
(0.0229555 1.83394e-05 2.11396e-24)
(0.0229315 1.60149e-05 4.01791e-24)
(0.0229011 1.78318e-05 -6.76485e-23)
(0.0228597 2.03029e-05 -6.92027e-23)
(0.0228153 1.86287e-05 7.5755e-24)
(0.0227739 1.54604e-05 -1.21096e-22)
(0.0227376 1.37161e-05 -1.02979e-22)
(0.0227051 1.27009e-05 -3.17653e-22)
(0.0226796 1.04193e-05 0)
(0.0226617 7.51461e-06 -1.92727e-22)
(0.0226455 6.02522e-06 -1.83406e-22)
(0.0226278 5.89025e-06 -3.47531e-22)
(0.0226112 5.22914e-06 -1.64213e-22)
(0.0225981 3.34662e-06 1.54886e-22)
(0.0225892 9.51194e-07 0)
(0.0225831 -8.97802e-07 1.34174e-22)
(0.0225772 -2.06213e-06 -1.23581e-22)
(0.0225705 -3.18793e-06 -2.13732e-22)
(0.0225636 -4.74875e-06 4.02284e-22)
(0.0225579 -6.51202e-06 3.78492e-22)
(0.0225538 -8.1865e-06 0)
(0.022551 -9.5757e-06 1.61685e-22)
(0.0225491 -1.0603e-05 -9.06232e-24)
(0.0225476 -1.13889e-05 0)
(0.0225461 -1.22171e-05 -1.02166e-22)
(0.0225451 -1.33906e-05 -4.85342e-24)
(0.0225453 -1.51293e-05 1.00106e-24)
(0.0225477 -1.72562e-05 3.83441e-24)
(0.0225519 -1.92644e-05 -7.74473e-23)
(0.0225559 -2.06798e-05 -4.77296e-23)
(0.0225582 -2.17388e-05 9.41808e-24)
(0.0225606 -2.30247e-05 2.31014e-24)
(0.0225642 -2.47061e-05 1.16531e-24)
(0.0225696 -2.65281e-05 -2.53236e-23)
(0.0225768 -2.81926e-05 3.30047e-23)
(0.0225862 -2.95691e-05 0)
(0.0225974 -3.07798e-05 9.67558e-23)
(0.0226113 -3.1932e-05 0)
(0.0226276 -3.29577e-05 0)
(0.0226487 -3.39165e-05 0)
(0.0226735 -3.42968e-05 -5.79508e-23)
(0.0227049 -3.45937e-05 -4.54431e-25)
(0.0227421 -3.42299e-05 3.53563e-25)
(0.0227898 -3.39591e-05 -2.26705e-25)
(0.0228483 -3.25437e-05 -1.56735e-23)
(0.0229304 -3.35297e-05 -2.5104e-29)
(0.0241689 -3.35933e-05 3.843e-26)
(0.0242475 -3.28874e-05 6.2809e-24)
(0.0243617 -2.90219e-05 3.12217e-23)
(0.0244714 -2.56828e-05 -9.69442e-23)
(0.0245929 -2.31495e-05 6.03219e-25)
(0.0247067 -1.98036e-05 1.76207e-22)
(0.0248163 -1.55669e-05 -2.19631e-22)
(0.0249217 -1.25027e-05 -2.6816e-22)
(0.0250216 -1.02435e-05 3.1207e-22)
(0.0251163 -8.5444e-06 -6.11142e-25)
(0.0252063 -6.96097e-06 0)
(0.0252908 -5.54819e-06 4.20977e-22)
(0.0253697 -4.2255e-06 1.43223e-23)
(0.0254428 -3.01412e-06 4.99401e-22)
(0.0255093 -1.75806e-06 5.73811e-22)
(0.025568 -3.5636e-07 3.80707e-23)
(0.0256195 1.6049e-06 -6.713e-22)
(0.0256625 4.31142e-06 6.68123e-22)
(0.0256951 7.41244e-06 -7.01586e-22)
(0.025715 1.07721e-05 7.33062e-22)
(0.0257239 1.40514e-05 -7.67987e-22)
(0.0257265 1.55257e-05 -4.00112e-22)
(0.0257226 1.45521e-05 8.57158e-22)
(0.0257186 1.43212e-05 4.64019e-25)
(0.0257117 1.51722e-05 -2.73919e-23)
(0.0256983 1.64981e-05 0)
(0.0256817 1.73084e-05 0)
(0.0256648 1.7264e-05 -4.73388e-22)
(0.0256483 1.70574e-05 -4.50865e-22)
(0.0256312 1.72423e-05 -6.09778e-23)
(0.0256122 1.80633e-05 3.07305e-23)
(0.0255891 1.93647e-05 4.9837e-22)
(0.0255612 2.08334e-05 -1.56564e-23)
(0.0255282 2.25548e-05 -2.36668e-22)
(0.0254908 2.45692e-05 0)
(0.0254499 2.69287e-05 0)
(0.0254048 2.92845e-05 -5.30166e-22)
(0.0253559 3.12928e-05 -2.25868e-22)
(0.025303 3.31343e-05 2.50237e-22)
(0.0252446 3.52802e-05 -8.11582e-24)
(0.0251786 3.80325e-05 7.98896e-24)
(0.0251038 4.12944e-05 -1.35866e-22)
(0.0250207 4.47427e-05 1.34352e-22)