/*--------------------------------*- C++ -*----------------------------------*\
  =========                 |
  \\      /  F ield         | OpenFOAM: The Open Source CFD Toolbox
   \\    /   O peration     | Website:  https://openfoam.org
    \\  /    A nd           | Version:  9
     \\/     M anipulation  |
\*---------------------------------------------------------------------------*/
FoamFile
{
    format      ascii;
    class       volSymmTensorField;
    location    "3000";
    object      UPrime2Mean;
}
// * * * * * * * * * * * * * * * * * * * * * * * * * * * * * * * * * * * * * //

dimensions      [0 2 -2 0 0 0 0];

internalField   nonuniform List<symmTensor> 
14751
(
(2.16654e-06 1.59349e-08 0 9.17203e-10 0 0)
(1.73331e-06 2.43819e-10 0 3.04512e-11 0 0)
(1.62576e-06 -1.18356e-09 6.91413e-30 1.65419e-11 1.82884e-32 1.25548e-52)
(1.60831e-06 -1.47425e-09 -5.27031e-30 1.93478e-11 -2.62185e-32 1.25166e-52)
(1.62854e-06 -1.51658e-09 1.87989e-29 1.52962e-11 6.15552e-32 1.30178e-51)
(1.65646e-06 -2.2413e-09 -2.76138e-28 3.29656e-11 -1.41659e-30 4.51169e-49)
(1.79659e-06 -3.01941e-09 0 2.64552e-11 0 0)
(1.77535e-06 -1.10094e-09 6.1365e-30 8.11598e-12 2.45787e-32 2.0448e-52)
(1.64439e-06 -4.3997e-10 1.84248e-30 1.32084e-11 5.2056e-33 6.44643e-54)
(1.59718e-06 -1.00893e-09 6.41575e-30 8.66146e-12 3.81337e-32 3.89727e-52)
(1.61859e-06 -1.17012e-09 3.15219e-30 6.74091e-12 6.38351e-33 2.24379e-53)
(1.65949e-06 -1.18709e-09 -1.95259e-28 6.41451e-12 -4.19188e-30 7.17321e-48)
(1.70818e-06 -1.19099e-09 0 6.29905e-12 0 0)
(1.76624e-06 -1.18702e-09 -4.09724e-30 6.27005e-12 1.43743e-31 9.5384e-51)
(1.83695e-06 -1.18392e-09 -4.97396e-28 6.29607e-12 4.41125e-30 9.82014e-48)
(1.92185e-06 -1.15917e-09 -4.17682e-28 6.24338e-12 2.29774e-30 2.90971e-48)
(2.01679e-06 -1.12004e-09 3.39817e-29 6.25363e-12 -1.48782e-31 1.29865e-50)
(2.11494e-06 -1.10373e-09 -5.25466e-29 6.36909e-12 1.30117e-31 1.31204e-50)
(2.23813e-06 -1.2675e-09 -1.01003e-27 7.00509e-12 2.09887e-30 3.76088e-48)
(2.38954e-06 -1.52515e-09 -1.23865e-27 9.05424e-12 1.90451e-30 4.01541e-48)
(2.48612e-06 -8.58435e-10 0 7.50218e-12 0 0)
(2.57382e-06 -1.06033e-09 -1.86194e-27 6.96599e-12 1.90011e-30 5.02974e-48)
(2.72742e-06 -1.17584e-09 1.28425e-28 1.0284e-11 -6.48936e-32 1.77187e-50)
(2.91384e-06 -1.26246e-09 -1.37395e-28 5.90688e-12 8.19455e-32 1.87421e-50)
(3.11819e-06 -1.3915e-09 1.58706e-28 7.54075e-12 -7.72162e-32 1.88011e-50)
(3.352e-06 -1.69222e-09 5.51519e-27 7.5732e-12 -2.49309e-30 1.98431e-47)
(3.58985e-06 -1.46427e-09 0 4.43326e-12 0 0)
(3.79723e-06 -1.2054e-09 1.61783e-27 3.81265e-12 -5.49105e-31 1.26627e-48)
(4.01049e-06 -1.24526e-09 0 3.92742e-12 0 0)
(4.24557e-06 -1.29399e-09 0 3.83872e-12 0 0)
(4.4979e-06 -1.3345e-09 0 4.10933e-12 0 0)
(4.76809e-06 -1.39925e-09 0 4.56043e-12 0 0)
(5.05751e-06 -1.45329e-09 0 5.65408e-12 0 0)
(5.36163e-06 -1.46799e-09 1.2897e-28 6.90131e-12 -2.50847e-32 4.92067e-51)
(5.67302e-06 -1.404e-09 -1.36164e-28 7.85016e-12 2.5006e-32 4.9125e-51)
(5.97709e-06 -1.29728e-09 4.44901e-27 9.30811e-12 -9.20886e-31 5.37842e-48)
(6.26993e-06 -1.24758e-09 -4.47253e-27 1.12805e-11 9.88353e-31 5.40729e-48)
(6.5565e-06 -1.20654e-09 -4.33778e-27 1.34134e-11 1.04734e-30 5.13216e-48)
(6.83806e-06 -1.21264e-09 0 1.57173e-11 0 0)
(7.11545e-06 -1.26459e-09 0 1.80443e-11 0 0)
(7.38545e-06 -1.38754e-09 3.22338e-29 2.02589e-11 -8.38361e-33 3.3955e-52)
(7.64278e-06 -1.59486e-09 -3.40276e-29 2.23688e-11 8.80833e-33 3.37128e-52)
(7.87708e-06 -1.82853e-09 -3.15245e-29 2.42619e-11 9.74256e-33 3.7215e-52)
(8.07573e-06 -2.07065e-09 3.377e-29 2.58934e-11 -1.04083e-32 3.7024e-52)
(8.2307e-06 -2.25468e-09 1.58785e-29 2.73641e-11 -5.77438e-33 1.04739e-52)
(8.34355e-06 -2.38603e-09 -1.7471e-29 2.86143e-11 6.19077e-33 1.04746e-52)
(8.43095e-06 -2.46331e-09 -8.56635e-30 2.96875e-11 3.05218e-33 2.95309e-53)
(8.51805e-06 -2.42886e-09 -2.4009e-27 3.02114e-11 8.31856e-31 1.99054e-48)
(8.64032e-06 -2.33946e-09 0 3.03627e-11 0 0)
(8.82484e-06 -2.14194e-09 2.69504e-30 3.00922e-11 -6.94565e-34 2.03584e-54)
(9.0699e-06 -1.94084e-09 -3.01728e-30 2.98899e-11 7.44505e-34 2.01635e-54)
(9.35255e-06 -1.95652e-09 -5.9738e-30 2.92487e-11 2.24091e-33 7.7644e-54)
(9.68151e-06 -2.25926e-09 6.34912e-30 2.85959e-11 -2.64649e-33 7.69079e-54)
(1.00217e-05 -2.42771e-09 1.1896e-29 2.84749e-11 -6.42998e-33 2.90404e-53)
(1.03364e-05 -2.70986e-09 3.08795e-27 2.93681e-11 -1.55949e-30 1.88324e-48)
(1.06061e-05 -2.81378e-09 -4.61273e-29 3.14797e-11 1.96454e-32 4.393e-52)
(1.07712e-05 -2.56617e-09 2.29889e-29 3.33463e-11 -1.22591e-32 1.07982e-52)
(1.08445e-05 -2.3558e-09 0 3.79847e-11 0 0)
(1.08387e-05 -2.31594e-09 0 4.3888e-11 0 0)
(1.07705e-05 -2.32004e-09 0 5.4293e-11 0 0)
(1.06547e-05 -2.41239e-09 -8.8498e-27 6.35682e-11 6.96792e-30 2.34241e-47)
(1.04996e-05 -2.65664e-09 -1.63483e-26 6.80948e-11 1.45451e-29 8.86492e-47)
(1.03121e-05 -3.00288e-09 -6.33593e-29 6.50837e-11 5.69304e-32 1.32448e-51)
(1.00881e-05 -3.25363e-09 -5.04179e-29 5.91424e-11 5.30667e-32 1.22937e-51)
(9.81797e-06 -3.33554e-09 -3.7572e-29 5.15512e-11 4.61469e-32 1.17579e-51)
(9.50179e-06 -3.36987e-09 3.02655e-27 4.34888e-11 -3.75522e-30 5.37834e-48)
(9.16179e-06 -3.59628e-09 -2.64719e-27 3.6355e-11 3.34223e-30 4.89269e-48)
(8.82768e-06 -4.00126e-09 0 3.09427e-11 0 0)
(8.51188e-06 -4.49558e-09 5.74401e-29 2.86631e-11 -8.65363e-32 4.19632e-51)
(8.18923e-06 -4.77626e-09 -6.41064e-29 2.7285e-11 9.17949e-32 4.15819e-51)
(7.84781e-06 -4.95826e-09 0 3.34833e-11 0 0)
(7.53915e-06 -5.22649e-09 0 4.67563e-11 0 0)
(7.26881e-06 -5.31235e-09 0 6.43924e-11 0 0)
(7.00355e-06 -5.27809e-09 0 7.42434e-11 0 0)
(6.72499e-06 -5.3736e-09 1.2833e-28 7.52858e-11 -5.97814e-31 6.42165e-50)
(6.4483e-06 -5.73235e-09 -5.10366e-29 7.25159e-11 2.70382e-31 1.59524e-50)
(6.20045e-06 -6.22418e-09 -1.03628e-28 6.94618e-11 5.99212e-31 6.35493e-50)
(5.98051e-06 -6.54555e-09 1.33257e-28 6.61667e-11 -6.30869e-31 6.15738e-50)
(5.7667e-06 -6.57057e-09 -1.59551e-28 6.25614e-11 7.30964e-31 6.12754e-50)
(5.53738e-06 -6.33437e-09 -8.02058e-29 5.7952e-11 3.5942e-31 1.46438e-50)
(5.2875e-06 -6.1119e-09 1.34499e-28 5.157e-11 -6.7114e-31 5.52483e-50)
(5.03409e-06 -5.91611e-09 0 4.41069e-11 0 0)
(4.78807e-06 -5.67752e-09 0 4.09543e-11 0 0)
(4.55296e-06 -5.2656e-09 -5.52381e-29 3.94491e-11 2.4843e-31 1.0837e-50)
(4.31897e-06 -4.53699e-09 7.55193e-29 3.41092e-11 -2.65508e-31 1.06335e-50)
(4.08267e-06 -3.79316e-09 0 2.78382e-11 0 0)
(3.86209e-06 -3.3669e-09 0 2.39264e-11 0 0)
(3.67052e-06 -3.19777e-09 0 2.22421e-11 0 0)
(3.49822e-06 -2.97692e-09 0 2.05068e-11 0 0)
(3.32643e-06 -2.55239e-09 -1.79453e-27 1.81746e-11 5.33582e-30 6.05008e-48)
(3.15226e-06 -2.19159e-09 1.48946e-29 1.58757e-11 -3.77342e-32 3.3086e-52)
(2.98551e-06 -1.95832e-09 0 1.40443e-11 0 0)
(2.82136e-06 -1.70534e-09 9.34124e-30 1.26094e-11 -2.40971e-32 1.78245e-52)
(2.65793e-06 -1.53364e-09 4.73405e-29 1.14341e-11 -1.13534e-31 4.00967e-51)
(2.48632e-06 -1.25503e-09 -1.91433e-29 1.03913e-11 4.87072e-32 8.47294e-52)
(2.31557e-06 -1.09838e-09 7.17813e-30 9.44159e-12 -1.27229e-32 9.02385e-53)
(2.14972e-06 -8.77189e-10 1.42975e-28 1.05779e-11 -2.78958e-31 4.49597e-50)
(2.02321e-06 -1.46436e-09 -1.92721e-30 1.27329e-11 3.40881e-33 7.36292e-54)
(1.98358e-06 -1.11432e-09 -8.73737e-29 2.32108e-11 8.20893e-32 1.96359e-50)
(8.10205e-06 3.36913e-08 -1.36983e-29 3.41226e-09 5.47164e-30 2.87955e-50)
(7.3678e-06 1.28126e-08 0 9.3926e-10 0 0)
(6.75375e-06 -1.17103e-09 7.48043e-27 8.01571e-10 2.07545e-28 6.28774e-46)
(6.6299e-06 -6.72866e-09 1.223e-28 8.19732e-10 1.12041e-29 8.84092e-49)
(6.59091e-06 -1.01399e-08 1.31806e-28 7.49945e-10 -9.35998e-28 6.82154e-45)
(6.87665e-06 -2.16372e-08 4.04403e-28 1.21917e-09 -1.77321e-29 1.66817e-48)
(7.32243e-06 -1.73995e-08 3.25912e-28 7.3283e-10 -1.09099e-29 7.39594e-49)
(6.94857e-06 -3.41667e-11 0 6.78177e-10 0 0)
(6.6147e-06 -2.72616e-09 -7.96558e-26 8.22987e-10 2.22589e-27 2.65243e-44)
(6.66398e-06 -1.1413e-08 7.36554e-27 6.38787e-10 -1.40125e-28 1.02182e-46)
(7.01146e-06 -1.55328e-08 0 5.35854e-10 0 0)
(7.5157e-06 -1.73678e-08 -3.44372e-27 5.17113e-10 4.28468e-29 1.04898e-47)
(8.11972e-06 -1.88587e-08 0 5.26386e-10 0 0)
(8.82661e-06 -2.06377e-08 0 5.42611e-10 0 0)
(9.66417e-06 -2.2885e-08 3.77743e-25 5.6044e-10 -3.16929e-27 5.03812e-44)
(1.06601e-05 -2.51248e-08 6.67861e-26 5.66945e-10 -4.96608e-28 1.19406e-45)
(1.18004e-05 -2.66788e-08 -5.8963e-25 5.63889e-10 4.10319e-27 7.81948e-44)
(1.30336e-05 -2.85958e-08 -1.69694e-25 5.72711e-10 1.09984e-27 5.5144e-45)
(1.44718e-05 -3.25683e-08 1.99523e-25 6.0716e-10 -1.1361e-27 5.85084e-45)
(1.60199e-05 -3.2897e-08 6.82365e-27 6.08199e-10 -3.6985e-29 5.93942e-48)
(1.7334e-05 -2.60179e-08 1.21502e-25 7.25723e-10 -6.48313e-28 1.6467e-45)
(1.87466e-05 -3.25302e-08 -1.27252e-25 6.87925e-10 5.89681e-28 1.45687e-45)
(2.05276e-05 -3.81966e-08 0 5.90641e-10 0 0)
(2.25815e-05 -4.20888e-08 0 5.92396e-10 0 0)
(2.48482e-05 -4.59246e-08 0 6.14941e-10 0 0)
(2.72257e-05 -4.89353e-08 -2.3436e-26 5.61173e-10 7.69552e-29 3.03034e-47)
(2.95439e-05 -4.58921e-08 1.40215e-24 4.85392e-10 -4.29031e-27 9.5999e-44)
(3.17676e-05 -4.44788e-08 1.90449e-24 4.97907e-10 -5.43209e-27 1.57984e-43)
(3.40744e-05 -4.68041e-08 0 5.05504e-10 0 0)
(3.64961e-05 -4.91294e-08 -8.19403e-25 5.10232e-10 1.9109e-27 2.34131e-44)
(3.90076e-05 -5.12647e-08 -1.09353e-24 5.25903e-10 2.32512e-27 3.78999e-44)
(4.15893e-05 -5.35896e-08 9.99828e-25 5.40653e-10 -1.9072e-27 2.96768e-44)
(4.4242e-05 -5.57229e-08 0 5.70167e-10 0 0)
(4.6942e-05 -5.6959e-08 -1.28098e-25 6.23841e-10 2.10174e-28 4.51541e-46)
(4.96451e-05 -5.68048e-08 1.30606e-24 6.55525e-10 -1.98492e-27 4.52958e-44)
(5.22535e-05 -5.5294e-08 -2.13515e-25 6.88483e-10 2.99439e-28 1.19361e-45)
(5.4724e-05 -5.42675e-08 8.25653e-26 7.412e-10 -1.14799e-28 1.77412e-46)
(5.71006e-05 -5.38335e-08 5.37326e-25 8.02417e-10 -7.80047e-28 7.82485e-45)
(5.94157e-05 -5.41636e-08 0 8.75499e-10 0 0)
(6.16814e-05 -5.48603e-08 0 9.56592e-10 0 0)
(6.38817e-05 -5.53808e-08 -6.29708e-26 1.0424e-09 9.27925e-29 1.13686e-46)
(6.59785e-05 -5.51694e-08 6.48918e-26 1.12923e-09 -1.01462e-28 1.10098e-46)
(6.79047e-05 -5.33387e-08 -2.21463e-25 1.20954e-09 3.97075e-28 1.39904e-45)
(6.95858e-05 -4.97854e-08 -3.20635e-26 1.28261e-09 6.39412e-29 2.8683e-47)
(7.09837e-05 -4.51821e-08 0 1.35836e-09 0 0)
(7.21178e-05 -4.09438e-08 0 1.44592e-09 0 0)
(7.30763e-05 -3.83485e-08 0 1.55083e-09 0 0)
(7.3967e-05 -3.80656e-08 7.38983e-26 1.66273e-09 -2.63915e-28 1.76288e-46)
(7.49184e-05 -4.10121e-08 0 1.73506e-09 0 0)
(7.60298e-05 -4.59235e-08 0 1.71232e-09 0 0)
(7.73471e-05 -4.9904e-08 8.93046e-27 1.61678e-09 -2.79128e-29 2.44342e-48)
(7.8819e-05 -5.2456e-08 -9.45522e-27 1.59853e-09 2.28243e-29 2.47518e-48)
(8.04798e-05 -5.54222e-08 0 1.5006e-09 0 0)
(8.21169e-05 -5.23418e-08 1.41449e-25 1.38971e-09 -2.47751e-28 6.62582e-46)
(8.3562e-05 -4.90381e-08 -2.80736e-25 1.37729e-09 3.70768e-28 2.80946e-45)
(8.47454e-05 -3.98418e-08 -3.11157e-26 1.40427e-09 2.96087e-29 4.00898e-47)
(8.5217e-05 -2.44777e-08 2.46012e-25 1.50444e-09 -3.48859e-28 2.51006e-45)
(8.51091e-05 -1.43505e-08 2.99989e-26 1.55716e-09 -4.05306e-29 3.79414e-47)
(8.45547e-05 -5.29909e-09 -3.77444e-25 1.70964e-09 3.6145e-28 7.23356e-45)
(8.35516e-05 3.04242e-09 -5.15417e-26 1.92365e-09 4.79803e-29 1.41766e-46)
(8.21043e-05 9.90377e-09 6.48882e-26 2.08731e-09 -6.79826e-29 3.03421e-46)
(8.0256e-05 1.42012e-08 -2.54903e-27 2.12783e-09 5.84248e-30 4.31717e-49)
(7.81085e-05 1.73857e-08 0 2.05618e-09 0 0)
(7.57535e-05 2.0373e-08 6.28465e-26 1.93692e-09 -1.20479e-28 4.93116e-46)
(7.32524e-05 2.31995e-08 -6.54758e-26 1.81021e-09 1.68274e-28 4.84308e-46)
(7.05756e-05 2.61549e-08 -6.78034e-27 1.64361e-09 2.06229e-29 7.51012e-48)
(6.77512e-05 2.7046e-08 6.05107e-27 1.45424e-09 -2.04136e-29 7.56537e-48)
(6.49116e-05 2.53051e-08 0 1.33457e-09 0 0)
(6.21075e-05 2.45292e-08 0 1.28103e-09 0 0)
(5.91767e-05 2.8483e-08 2.74621e-25 1.29225e-09 -1.45193e-27 2.91753e-44)
(5.61043e-05 3.04685e-08 0 1.47886e-09 0 0)
(5.30937e-05 2.82317e-08 -4.55053e-26 1.74173e-09 3.15811e-28 1.72583e-45)
(5.02125e-05 2.75678e-08 5.29723e-26 2.01321e-09 -4.43106e-28 1.69329e-45)
(4.74094e-05 2.7799e-08 0 2.19913e-09 0 0)
(4.46957e-05 2.62545e-08 -2.74471e-28 2.29401e-09 4.31964e-30 9.92324e-50)
(4.21311e-05 2.22511e-08 0 2.32068e-09 0 0)
(3.9727e-05 1.82745e-08 2.44616e-28 2.27806e-09 -4.92197e-30 9.46673e-50)
(3.74202e-05 1.65985e-08 0 2.19142e-09 0 0)
(3.51656e-05 1.64208e-08 2.30801e-25 2.09079e-09 -5.05894e-27 9.21813e-44)
(3.29722e-05 1.68906e-08 0 1.96739e-09 0 0)
(3.08646e-05 1.68362e-08 -2.03789e-28 1.8611e-09 4.9732e-30 8.01758e-50)
(2.88817e-05 1.56985e-08 -2.06729e-25 1.76629e-09 4.91783e-27 8.01946e-44)
(2.70642e-05 1.39505e-08 2.07118e-25 1.72718e-09 -4.71232e-27 7.5278e-44)
(2.54073e-05 1.28444e-08 -2.03988e-25 1.69254e-09 4.45433e-27 6.93474e-44)
(2.38429e-05 1.33631e-08 0 1.56026e-09 0 0)
(2.23568e-05 1.33712e-08 0 1.37681e-09 0 0)
(2.10063e-05 1.1692e-08 0 1.22226e-09 0 0)
(1.98087e-05 9.66152e-09 -1.78397e-25 1.12881e-09 3.27337e-27 4.76465e-44)
(1.8705e-05 9.10478e-09 -1.71299e-25 1.07034e-09 3.00817e-27 4.23327e-44)
(1.76332e-05 9.8219e-09 2.53248e-27 1.01763e-09 -4.2099e-29 9.15096e-48)
(1.65771e-05 1.0112e-08 3.94433e-27 9.38103e-10 -6.62901e-29 2.90385e-47)
(1.55521e-05 1.00941e-08 -4.9713e-27 8.43273e-10 6.03178e-29 2.9035e-47)
(1.45177e-05 1.09231e-08 3.70868e-28 7.65106e-10 -5.19764e-30 2.99236e-49)
(1.34728e-05 1.15093e-08 -5.35973e-28 7.05579e-10 5.67587e-30 4.5467e-49)
(1.23804e-05 1.29358e-08 -7.20792e-26 6.64603e-10 8.44874e-28 1.31341e-44)
(1.13074e-05 1.24272e-08 2.02298e-27 6.43776e-10 -1.96408e-29 9.77252e-48)
(1.02674e-05 1.10825e-08 -3.07305e-26 6.43604e-10 4.42132e-28 4.71501e-45)
(9.40688e-06 4.44385e-09 0 6.83818e-10 0 0)
(8.64142e-06 2.92612e-09 4.18523e-29 7.60601e-10 -1.24921e-30 3.50074e-50)
(-3.58952e-07 5.905e-08 1.60589e-28 7.19051e-09 -1.33907e-29 3.6202e-49)
(-1.37487e-06 4.24716e-08 1.04704e-28 4.72716e-09 -1.36771e-30 2.22271e-49)
(-2.55635e-06 8.42908e-09 9.35206e-27 4.61345e-09 -3.64009e-28 4.66687e-46)
(-2.9476e-06 -6.28144e-09 8.18269e-26 4.67988e-09 -2.47624e-27 1.28699e-44)
(-3.33839e-06 -2.29833e-08 -8.14865e-26 4.519e-09 1.9199e-27 5.90245e-45)
(-2.86623e-06 -5.84618e-08 6.71569e-27 6.30672e-09 -1.39663e-28 2.16622e-47)
(-2.61118e-06 -3.37458e-08 0 4.08069e-09 0 0)
(-3.24633e-06 -5.14671e-09 0 4.46499e-09 0 0)
(-3.35846e-06 -2.30841e-08 -7.93412e-25 4.90014e-09 1.22474e-26 1.35476e-43)
(-2.79929e-06 -4.94508e-08 3.94898e-26 4.28109e-09 -5.33147e-28 2.41902e-46)
(-1.68013e-06 -6.62883e-08 1.53003e-24 3.8985e-09 -1.84686e-26 2.95953e-43)
(-1.59706e-07 -7.72572e-08 1.98737e-24 3.85071e-09 -2.14143e-26 4.04858e-43)
(1.67989e-06 -8.65976e-08 -5.6748e-27 3.96819e-09 1.14875e-28 2.2029e-47)
(3.82339e-06 -9.66112e-08 2.95352e-24 4.15541e-09 -2.70161e-26 6.05514e-43)
(6.30887e-06 -1.08574e-07 -4.21857e-24 4.3726e-09 3.61019e-26 1.02555e-42)
(9.20286e-06 -1.21797e-07 2.25169e-25 4.51782e-09 -1.77629e-27 2.43228e-45)
(1.25191e-05 -1.33219e-07 -2.57789e-24 4.53825e-09 1.95036e-26 2.76885e-43)
(1.6138e-05 -1.44157e-07 -5.70261e-25 4.61959e-09 3.98836e-27 1.15968e-44)
(2.01612e-05 -1.58619e-07 0 4.80583e-09 0 0)
(2.43126e-05 -1.58662e-07 -5.24136e-24 4.80869e-09 3.40018e-26 7.58905e-43)
(2.82135e-05 -1.46479e-07 5.69671e-24 5.63695e-09 -3.65735e-26 8.00879e-43)
(3.24367e-05 -1.69313e-07 0 5.40182e-09 0 0)
(3.72394e-05 -1.94251e-07 0 4.63277e-09 0 0)
(4.26031e-05 -2.11418e-07 0 4.88494e-09 0 0)
(4.84361e-05 -2.26832e-07 3.97416e-24 4.89694e-09 -1.88061e-26 2.68556e-43)
(5.42788e-05 -2.30642e-07 0 4.43156e-09 0 0)
(5.98503e-05 -2.20305e-07 2.75844e-24 4.1335e-09 -1.23637e-26 1.08967e-43)
(6.52951e-05 -2.18174e-07 -2.8887e-24 4.23941e-09 1.22304e-26 1.0934e-43)
(7.08657e-05 -2.25508e-07 4.82026e-24 4.30209e-09 -1.88342e-26 2.72844e-43)
(7.65634e-05 -2.31847e-07 1.249e-24 4.35694e-09 -4.511e-27 1.70881e-44)
(8.23453e-05 -2.36571e-07 1.60957e-24 4.47044e-09 -5.33507e-27 2.58618e-44)
(8.81404e-05 -2.4067e-07 -1.65031e-24 4.58639e-09 4.86039e-27 2.6057e-44)
(9.39366e-05 -2.43958e-07 -5.70259e-24 4.7708e-09 1.52648e-26 2.92307e-43)
(9.97012e-05 -2.43897e-07 6.77272e-25 5.12744e-09 -1.64225e-27 3.91609e-45)
(0.000105371 -2.39319e-07 -1.7012e-24 5.40052e-09 3.70866e-27 2.43486e-44)
(0.000110782 -2.29375e-07 -3.353e-25 5.63409e-09 6.63049e-28 9.43853e-46)
(0.000115819 -2.19889e-07 1.73371e-25 5.99071e-09 -3.13427e-28 2.40016e-46)
(0.000120568 -2.13144e-07 -4.97031e-25 6.41903e-09 9.79254e-28 2.15401e-45)
(0.000125117 -2.09049e-07 0 6.92865e-09 0 0)
(0.000129469 -2.05222e-07 1.30533e-24 7.48234e-09 -2.57923e-27 1.44504e-44)
(0.000133586 -1.99154e-07 1.59193e-25 8.04807e-09 -3.17924e-28 2.25807e-46)
(0.000137364 -1.88877e-07 -1.62518e-25 8.59699e-09 3.4283e-28 2.16052e-46)
(0.000140664 -1.72316e-07 3.17473e-25 9.09936e-09 -7.72593e-28 9.00621e-46)
(0.000143377 -1.50717e-07 0 9.57438e-09 0 0)
(0.000145488 -1.27865e-07 -6.30606e-25 1.00873e-08 2.05676e-27 3.90958e-45)
(0.000147089 -1.08718e-07 3.88425e-26 1.06856e-08 -1.46824e-28 1.64039e-47)
(0.000148339 -9.60831e-08 -4.0472e-26 1.13785e-08 1.67807e-28 1.63329e-47)
(0.00014941 -9.10221e-08 -6.05165e-26 1.2095e-08 2.82519e-28 3.85979e-47)
(0.000150473 -9.49214e-08 1.41393e-25 1.25883e-08 -7.06322e-28 2.22238e-46)
(0.000151661 -1.05741e-07 1.01183e-26 1.25031e-08 -5.10924e-29 1.20229e-48)
(0.000153047 -1.17864e-07 -1.69113e-25 1.16514e-08 8.02454e-28 3.45942e-46)
(0.0001546 -1.25673e-07 0 1.11265e-08 0 0)
(0.000156384 -1.32975e-07 3.87658e-26 1.0606e-08 -1.06943e-28 2.39079e-47)
(0.000158166 -1.21851e-07 -2.64531e-25 9.73619e-09 6.61054e-28 1.27945e-45)
(0.000159643 -1.08373e-07 3.63796e-25 9.56353e-09 -6.59129e-28 2.66624e-45)
(0.00016068 -7.07868e-08 1.16487e-24 9.54657e-09 -1.71284e-27 2.91576e-44)
(0.00016048 -1.31457e-08 -2.02134e-25 1.02065e-08 4.04969e-28 8.42768e-46)
(0.000159424 2.0233e-08 -1.27763e-25 1.03185e-08 1.95099e-28 3.48703e-46)
(0.00015774 5.23001e-08 5.68835e-25 1.08686e-08 -3.61598e-28 8.26467e-45)
(0.000155373 9.00597e-08 -8.81835e-27 1.18683e-08 4.23192e-29 2.59795e-48)
(0.000152099 1.28596e-07 1.53595e-24 1.26323e-08 -1.64984e-27 7.76823e-44)
(0.000147864 1.56879e-07 -1.431e-24 1.2912e-08 2.59726e-27 7.53588e-44)
(0.000142985 1.72094e-07 -2.41483e-25 1.27186e-08 5.23526e-28 2.61283e-45)
(0.000137952 1.76722e-07 -1.03962e-24 1.22864e-08 3.01331e-27 5.67728e-44)
(0.000132841 1.81921e-07 -1.10082e-24 1.15597e-08 3.90748e-27 7.41539e-44)
(0.000127373 1.93491e-07 -1.12621e-24 1.05051e-08 4.66842e-27 9.53827e-44)
(0.00012155 1.99406e-07 2.30754e-25 9.53388e-09 -1.05271e-27 4.98688e-45)
(0.00011563 1.96767e-07 -1.1317e-25 9.05771e-09 5.81726e-28 1.25374e-45)
(0.000109674 1.994e-07 1.54247e-24 8.88753e-09 -9.74367e-27 3.16527e-43)
(0.000103489 2.12985e-07 -1.89798e-25 9.137e-09 1.35128e-27 4.79315e-45)
(9.71349e-05 2.19546e-07 -3.2022e-25 1.00658e-08 2.55808e-27 1.89222e-44)
(9.08455e-05 2.15506e-07 1.57697e-25 1.10921e-08 -1.43224e-27 4.58631e-45)
(8.47422e-05 2.11687e-07 -1.15898e-25 1.19578e-08 1.37392e-27 4.39189e-45)
(7.88269e-05 2.05219e-07 2.32756e-25 1.24579e-08 -3.30848e-27 1.68759e-44)
(7.31754e-05 1.91989e-07 -1.18643e-25 1.26695e-08 1.93028e-27 4.13561e-45)
(6.7819e-05 1.76472e-07 0 1.26286e-08 0 0)
(6.26626e-05 1.6598e-07 7.25215e-25 1.23779e-08 -1.64545e-26 2.44849e-43)
(5.75849e-05 1.61815e-07 -1.3343e-24 1.20561e-08 3.28665e-26 9.12406e-43)
(5.25927e-05 1.57642e-07 9.15122e-25 1.16733e-08 -2.42585e-26 4.84519e-43)
(4.78185e-05 1.49453e-07 1.10845e-24 1.11032e-08 -3.23171e-26 8.2439e-43)
(4.33862e-05 1.38049e-07 -1.06836e-25 1.05286e-08 3.89559e-27 1.22028e-44)
(3.93777e-05 1.24871e-07 3.74205e-25 1.00874e-08 -1.24641e-26 1.08116e-43)
(3.58602e-05 1.10151e-07 -2.22678e-25 9.8271e-09 7.9883e-27 4.41808e-44)
(3.27162e-05 1.00049e-07 1.03318e-24 9.42594e-09 -3.70837e-26 1.01331e-42)
(2.9746e-05 9.60357e-08 7.93824e-25 8.64995e-09 -2.87941e-26 6.76154e-43)
(2.69495e-05 9.0029e-08 -7.38961e-25 7.75748e-09 2.68823e-26 6.31099e-43)
(2.44373e-05 8.00231e-08 0 6.98187e-09 0 0)
(2.2213e-05 7.09024e-08 1.14625e-25 6.4345e-09 -4.19975e-27 1.67145e-44)
(2.01617e-05 6.68485e-08 1.72253e-25 6.04864e-09 -6.26606e-27 4.17322e-44)
(1.8183e-05 6.63404e-08 -4.68526e-25 5.71641e-09 1.70171e-26 3.61062e-43)
(1.62399e-05 6.54681e-08 -4.39968e-25 5.30086e-09 1.50641e-26 3.61524e-43)
(1.43475e-05 6.44743e-08 2.2306e-27 4.84203e-09 -8.28534e-29 1.58911e-47)
(1.24316e-05 6.59997e-08 -2.8135e-25 4.46746e-09 8.60508e-27 2.38509e-43)
(1.05051e-05 6.66063e-08 0 4.19975e-09 0 0)
(8.49125e-06 6.88412e-08 2.96155e-26 4.01603e-09 -1.05871e-27 8.67726e-45)
(6.51346e-06 6.53801e-08 -1.32244e-27 3.93198e-09 4.28044e-29 2.39835e-47)
(4.54347e-06 6.09743e-08 -2.45864e-27 3.96955e-09 -4.83259e-28 2.75158e-45)
(2.79267e-06 4.62482e-08 -6.18595e-29 4.10962e-09 -6.54153e-30 4.67011e-49)
(1.02986e-06 4.29235e-08 -1.37797e-28 4.33295e-09 -2.85124e-30 8.42687e-50)
(-2.77024e-05 9.1057e-08 -1.00396e-28 1.54559e-08 7.92719e-30 1.90068e-49)
(-2.90541e-05 7.34889e-08 0 1.34389e-08 0 0)
(-3.08501e-05 1.51214e-08 -1.79177e-25 1.33346e-08 3.49303e-27 1.75616e-44)
(-3.17516e-05 -1.16771e-08 -1.64641e-25 1.34471e-08 3.01966e-27 8.1284e-45)
(-3.27926e-05 -5.46239e-08 -1.70441e-27 1.36868e-08 2.86987e-29 9.2685e-49)
(-3.25307e-05 -1.20197e-07 1.47335e-24 1.74703e-08 -2.58512e-26 2.61484e-43)
(-3.28836e-05 -6.99956e-08 0 1.22988e-08 0 0)
(-3.36288e-05 -4.81127e-08 0 1.40511e-08 0 0)
(-3.35122e-05 -9.41425e-08 4.35024e-24 1.49439e-08 -6.34718e-26 1.13994e-42)
(-3.24765e-05 -1.47911e-07 1.15825e-25 1.37912e-08 -1.58432e-27 6.84996e-46)
(-3.06547e-05 -1.87325e-07 1.89256e-24 1.30982e-08 -2.33431e-26 1.50831e-43)
(-2.82033e-05 -2.17267e-07 -2.56671e-24 1.31455e-08 2.89884e-26 2.37407e-43)
(-2.52061e-05 -2.43827e-07 6.13495e-24 1.3612e-08 -6.38388e-26 1.1464e-42)
(-2.16993e-05 -2.70565e-07 -3.41249e-24 1.43052e-08 3.32872e-26 3.05317e-43)
(-1.7669e-05 -3.00396e-07 3.86363e-24 1.51579e-08 -3.54301e-26 3.42111e-43)
(-1.30433e-05 -3.345e-07 -8.65272e-24 1.58574e-08 7.48589e-26 1.50854e-42)
(-7.7419e-06 -3.67388e-07 4.79818e-24 1.59937e-08 -3.95991e-26 4.10793e-43)
(-1.91332e-06 -3.9518e-07 -1.12425e-23 1.61775e-08 8.79407e-26 2.04547e-42)
(4.38695e-06 -4.23436e-07 7.08684e-25 1.66004e-08 -5.22941e-27 7.35478e-45)
(1.07736e-05 -4.24146e-07 6.99444e-24 1.66567e-08 -5.09238e-26 6.48363e-43)
(1.70014e-05 -4.11256e-07 -8.31757e-24 1.88428e-08 5.99993e-26 8.32159e-43)
(2.36706e-05 -4.53786e-07 8.80298e-25 1.81835e-08 -5.8469e-27 8.52923e-45)
(3.09579e-05 -5.07722e-07 -9.51716e-25 1.60466e-08 5.64557e-27 9.22236e-45)
(3.89706e-05 -5.45279e-07 9.86382e-25 1.71653e-08 -5.18168e-27 9.27755e-45)
(4.75813e-05 -5.74942e-07 -3.10651e-24 1.70154e-08 1.64385e-26 8.83432e-44)
(5.59536e-05 -5.69628e-07 -1.07858e-24 1.53591e-08 5.60401e-27 9.99079e-45)
(6.38028e-05 -5.45016e-07 -5.08032e-24 1.47111e-08 2.67811e-26 2.03007e-43)
(7.14722e-05 -5.40373e-07 9.36941e-24 1.5122e-08 -4.74194e-26 6.42655e-43)
(7.92126e-05 -5.51695e-07 -4.85086e-24 1.53967e-08 2.31259e-26 1.54592e-43)
(8.69974e-05 -5.60385e-07 -9.37384e-24 1.56305e-08 4.17385e-26 5.56788e-43)
(9.47834e-05 -5.64679e-07 1.09207e-23 1.59803e-08 -4.48933e-26 6.85192e-43)
(0.000102453 -5.66162e-07 -6.56657e-25 1.63228e-08 2.38279e-27 2.48836e-45)
(0.000109991 -5.65985e-07 5.32737e-24 1.67943e-08 -1.79785e-26 1.51388e-43)
(0.000117364 -5.59222e-07 0 1.7753e-08 0 0)
(0.000124525 -5.43792e-07 5.37265e-24 1.85585e-08 -1.40126e-26 1.41035e-43)
(0.0001313 -5.17651e-07 3.32174e-25 1.9154e-08 -7.50618e-28 4.77296e-46)
(0.00013753 -4.91247e-07 -5.59695e-27 2.01149e-08 -2.14284e-29 4.8483e-48)
(0.000143321 -4.71689e-07 4.58793e-24 2.13466e-08 -9.64606e-27 8.9743e-44)
(0.000148811 -4.577e-07 5.50788e-24 2.2822e-08 -1.16317e-26 1.25952e-43)
(0.000153989 -4.43664e-07 -3.83648e-24 2.44347e-08 8.23362e-27 6.15553e-44)
(0.000158804 -4.24772e-07 -1.56172e-25 2.60911e-08 3.50258e-28 1.09357e-46)
(0.000163087 -3.96466e-07 1.58467e-25 2.76566e-08 -3.73185e-28 1.04258e-46)
(0.000166669 -3.55798e-07 0 2.90501e-08 0 0)
(0.00016945 -3.07699e-07 0 3.03892e-08 0 0)
(0.00017146 -2.60382e-07 6.1568e-25 3.18129e-08 -2.18531e-27 2.04463e-45)
(0.000172837 -2.22426e-07 0 3.3396e-08 0 0)
(0.000173766 -1.97495e-07 -1.23138e-24 3.51517e-08 5.47542e-27 9.47299e-45)
(0.000174467 -1.86241e-07 0 3.68866e-08 0 0)
(0.000175142 -1.88671e-07 -1.54046e-25 3.80057e-08 7.94194e-28 1.66285e-46)
(0.000175955 -2.01797e-07 -4.78919e-27 3.77294e-08 2.53573e-29 1.76012e-49)
(0.000176974 -2.17585e-07 1.89198e-25 3.54752e-08 -9.71555e-28 3.03358e-46)
(0.000178137 -2.26425e-07 -1.11494e-25 3.37838e-08 4.86601e-28 1.1558e-46)
(0.000179486 -2.34763e-07 7.38295e-26 3.31848e-08 -2.48288e-28 5.3859e-47)
(0.000180943 -2.18611e-07 0 3.10334e-08 0 0)
(0.000182121 -1.92688e-07 1.28838e-25 3.06038e-08 -1.98731e-28 2.45749e-46)
(0.000182667 -1.17153e-07 -1.25788e-24 3.02664e-08 1.81923e-27 2.27218e-44)
(0.000181807 -9.88689e-09 1.23541e-25 3.17787e-08 -2.18829e-28 2.11768e-46)
(0.000180063 5.08014e-08 0 3.20429e-08 0 0)
(0.000177623 1.08808e-07 1.48964e-24 3.32247e-08 1.40066e-28 3.79471e-44)
(0.000174391 1.86278e-07 1.5823e-24 3.55731e-08 4.97363e-28 4.79747e-44)
(0.00016996 2.75582e-07 -1.26565e-24 3.73893e-08 3.78709e-28 3.64435e-44)
(0.000164211 3.45398e-07 1.19068e-24 3.85263e-08 -1.61583e-27 3.58754e-44)
(0.000157676 3.74956e-07 -2.50711e-24 3.87816e-08 5.20286e-27 1.88327e-43)
(0.00015117 3.72926e-07 1.32668e-24 3.80013e-08 -3.79171e-27 5.96855e-44)
(0.000144581 3.83167e-07 1.09671e-24 3.55241e-08 -3.90477e-27 4.80955e-44)
(0.000137425 4.13116e-07 7.80825e-25 3.22996e-08 -3.2699e-27 2.78511e-44)
(0.00012982 4.29741e-07 2.52817e-25 2.98158e-08 -1.16256e-27 3.44383e-45)
(0.000122099 4.28324e-07 -2.13198e-25 2.87346e-08 1.09251e-27 3.57303e-45)
(0.000114307 4.34856e-07 2.11537e-24 2.84094e-08 -1.29633e-26 3.44164e-43)
(0.000106287 4.56499e-07 -3.36679e-24 2.90549e-08 2.36906e-26 9.66456e-43)
(9.81096e-05 4.66683e-07 -1.72297e-25 3.09554e-08 1.36875e-27 3.40111e-45)
(8.99959e-05 4.60237e-07 1.79327e-25 3.2985e-08 -1.61252e-27 3.22157e-45)
(8.21083e-05 4.50885e-07 -2.90147e-25 3.46458e-08 3.12556e-27 1.22057e-44)
(7.44801e-05 4.33214e-07 3.04806e-25 3.55897e-08 -3.93629e-27 1.17786e-44)
(6.71756e-05 4.04817e-07 -2.4728e-25 3.59431e-08 3.8371e-27 1.14101e-44)
(6.0152e-05 3.78586e-07 2.63712e-25 3.56669e-08 -4.50379e-27 1.0929e-44)
(5.32624e-05 3.66129e-07 -2.92526e-24 3.4934e-08 5.82458e-26 1.67094e-42)
(4.64203e-05 3.63031e-07 3.35547e-24 3.41645e-08 -7.17654e-26 2.34528e-42)
(3.97164e-05 3.54828e-07 -4.34972e-24 3.33003e-08 1.00155e-25 4.55293e-42)
(3.33521e-05 3.33618e-07 -1.37946e-24 3.19583e-08 3.45944e-26 5.26224e-43)
(2.75239e-05 3.01871e-07 -2.52945e-24 3.05027e-08 7.07592e-26 2.04187e-42)
(2.23985e-05 2.65014e-07 -2.32097e-24 2.95039e-08 7.29427e-26 1.9406e-42)
(1.80733e-05 2.27913e-07 2.13248e-24 2.86917e-08 -7.01703e-26 1.79525e-42)
(1.42023e-05 2.07901e-07 -9.56985e-25 2.70322e-08 3.2267e-26 4.14191e-43)
(1.04659e-05 2.01719e-07 8.52026e-25 2.46287e-08 -2.93472e-26 3.82828e-43)
(6.95726e-06 1.89624e-07 7.37843e-25 2.22428e-08 -2.73702e-26 3.55696e-43)
(3.83077e-06 1.69946e-07 -1.28998e-24 2.02118e-08 5.14956e-26 1.32688e-42)
(1.06537e-06 1.52968e-07 -1.11089e-24 1.8699e-08 4.80532e-26 1.2221e-42)
(-1.48794e-06 1.45679e-07 -2.51932e-26 1.75631e-08 1.29789e-27 1.04383e-45)
(-3.94555e-06 1.4465e-07 4.44007e-25 1.65806e-08 -2.14628e-26 3.1815e-43)
(-6.35191e-06 1.43118e-07 2.9541e-25 1.54432e-08 -1.46976e-26 1.96234e-43)
(-8.68018e-06 1.41481e-07 0 1.42385e-08 0 0)
(-1.10344e-05 1.43915e-07 4.60601e-25 1.32536e-08 -2.50003e-26 1.34951e-42)
(-1.33766e-05 1.44252e-07 -4.65307e-28 1.25508e-08 6.41273e-29 1.68536e-47)
(-1.58283e-05 1.47209e-07 4.53424e-28 1.20419e-08 -4.66471e-29 2.20601e-47)
(-1.82562e-05 1.40423e-07 -1.07358e-27 1.17926e-08 -1.73635e-29 9.18167e-48)
(-2.07638e-05 1.33362e-07 1.50564e-27 1.18978e-08 1.27949e-29 8.67007e-48)
(-2.31097e-05 1.10275e-07 -1.64766e-31 1.22844e-08 -1.26899e-33 2.53511e-56)
(-2.56152e-05 1.06265e-07 1.57052e-28 1.29005e-08 8.57927e-31 1.22106e-50)
(-6.49102e-05 1.31974e-07 -6.33815e-31 3.04069e-08 6.42975e-33 1.38961e-55)
(-6.66148e-05 1.07946e-07 1.15277e-27 2.86887e-08 -9.53068e-30 3.61271e-49)
(-6.89463e-05 2.40487e-08 -3.22968e-27 2.84459e-08 1.09369e-29 8.66818e-49)
(-7.03849e-05 -1.82136e-08 0 2.85986e-08 0 0)
(-7.20266e-05 -9.99205e-08 -1.2111e-24 2.99703e-08 2.01206e-26 1.25891e-43)
(-7.22156e-05 -1.91541e-07 -1.6597e-24 3.55742e-08 2.87689e-26 1.71511e-43)
(-7.31678e-05 -1.26211e-07 0 2.74713e-08 0 0)
(-7.3906e-05 -1.28335e-07 0 3.17288e-08 0 0)
(-7.36207e-05 -2.12244e-07 -3.12165e-24 3.34197e-08 4.88356e-26 3.20439e-43)
(-7.22278e-05 -3.01337e-07 -3.9017e-24 3.17473e-08 5.79231e-26 4.36642e-43)
(-6.98832e-05 -3.70958e-07 -4.3551e-24 3.08632e-08 5.95018e-26 4.72571e-43)
(-6.6744e-05 -4.27558e-07 0 3.12868e-08 0 0)
(-6.28961e-05 -4.79078e-07 -1.20487e-23 3.24684e-08 1.4068e-25 2.71631e-42)
(-5.83852e-05 -5.29653e-07 0 3.40871e-08 0 0)
(-5.32199e-05 -5.83095e-07 -7.66097e-24 3.61257e-08 7.88678e-26 8.656e-43)
(-4.7357e-05 -6.43787e-07 8.48678e-24 3.80957e-08 -8.25037e-26 9.65451e-43)
(-4.06735e-05 -7.07612e-07 8.13485e-24 3.86038e-08 -7.52664e-26 8.13243e-43)
(-3.32656e-05 -7.5943e-07 1.14215e-23 3.86744e-08 -1.00761e-25 1.50912e-42)
(-2.53704e-05 -8.02279e-07 1.10118e-23 3.91893e-08 -9.35807e-26 1.33453e-42)
(-1.74313e-05 -8.0566e-07 0 3.9322e-08 0 0)
(-9.5679e-06 -7.94856e-07 1.24709e-23 4.34114e-08 -1.02825e-25 1.49079e-42)
(-1.25176e-06 -8.57449e-07 0 4.21383e-08 0 0)
(7.64439e-06 -9.46056e-07 -1.39172e-23 3.80524e-08 9.24002e-26 1.62893e-42)
(1.73281e-05 -1.00908e-06 -1.45361e-23 4.09351e-08 8.73962e-26 1.68198e-42)
(2.76202e-05 -1.05057e-06 9.46234e-25 4.03232e-08 -5.81109e-27 6.89937e-45)
(3.74346e-05 -1.0261e-06 1.07792e-26 3.64253e-08 -3.94572e-28 2.21381e-47)
(4.65546e-05 -9.81845e-07 -1.00451e-24 3.53709e-08 5.89511e-27 6.77546e-45)
(5.54221e-05 -9.72326e-07 8.32642e-24 3.63697e-08 -4.88459e-26 4.32496e-43)
(6.42424e-05 -9.84493e-07 1.07169e-24 3.70433e-08 -6.06792e-27 6.3383e-45)
(7.29883e-05 -9.92167e-07 7.68112e-24 3.75749e-08 -4.04043e-26 3.27313e-43)