y,U_0,U_1,U_2
3.032,0.00242488,-6.11666e-07,2.19071e-27
3.02734,0.00516003,-2.53502e-06,-2.12314e-24
3.02209,0.00820089,-6.19202e-06,1.8981e-25
3.01633,0.0112623,-1.16472e-05,-8.08486e-24
3.0101,0.0140134,-1.86299e-05,1.43655e-23
3.00344,0.0163338,-2.68827e-05,7.10581e-25
2.99638,0.0182793,-3.62525e-05,-2.64328e-23
2.98893,0.0199272,-4.65194e-05,6.88443e-24
2.9811,0.0213377,-5.74171e-05,5.16938e-24
2.97289,0.0225562,-6.86977e-05,3.91268e-25
2.96429,0.0236157,-8.01271e-05,3.51551e-24
2.95531,0.0245409,-9.14979e-05,-1.18782e-23
2.94594,0.025351,-0.000102642,1.69016e-23
2.93617,0.0260621,-0.000113445,5.18232e-23
2.92597,0.0266884,-0.000123852,-1.31767e-23
2.91536,0.0272443,-0.000133916,-1.69393e-23
2.9043,0.0277432,-0.000143748,-1.28486e-23
2.8928,0.0281953,-0.000153447,-1.95292e-23
2.88083,0.0286067,-0.000163066,1.23785e-23
2.86838,0.028982,-0.000172632,-2.12051e-25
2.85543,0.029325,-0.000182183,-8.04746e-25
2.84199,0.0296385,-0.000191759,-4.99733e-23
2.82802,0.029925,-0.000201401,-2.1707e-23
2.81352,0.0301863,-0.000211144,4.57294e-23
2.79847,0.0304242,-0.000221022,2.05195e-23
2.78286,0.0306397,-0.000231063,-3.00941e-24
2.76668,0.0308342,-0.000241291,-6.4454e-24
2.74991,0.0310086,-0.000251725,4.30814e-23
2.73254,0.031164,-0.000262383,-3.75926e-23
2.71456,0.0313012,-0.000273278,-1.12133e-22
2.69596,0.0314212,-0.000284422,3.24061e-23
2.67673,0.0315249,-0.000295825,3.79443e-23
2.65685,0.0316132,-0.000307499,1.2584e-24
2.63631,0.031687,-0.000319452,2.92964e-23
2.61512,0.0317472,-0.000331694,-3.14953e-23
2.59326,0.0317944,-0.000344237,-3.85541e-23
2.57072,0.0318294,-0.000357089,3.08238e-23
2.5475,0.0318527,-0.000370262,4.9373e-24
2.52359,0.0318648,-0.000383765,2.0805e-23
2.49899,0.0318662,-0.000397608,5.80464e-23
2.47371,0.0318571,-0.000411799,-5.5925e-23
2.44773,0.0318377,-0.000426348,-3.00131e-23
2.42107,0.0318082,-0.000441259,5.49374e-23
2.39371,0.0317685,-0.000456536,8.54782e-24
2.36568,0.0317186,-0.000472182,-1.05755e-23
2.33697,0.0316584,-0.000488194,4.80265e-23
2.30759,0.0315877,-0.000504567,4.79871e-23
2.27756,0.0315062,-0.000521289,-1.26147e-23
2.24688,0.0314136,-0.000538345,-5.95987e-23
2.21556,0.0313095,-0.000555712,-4.78087e-23
2.18363,0.0311936,-0.000573361,5.97164e-24
2.1511,0.0310654,-0.000591256,2.2083e-23
2.118,0.0309246,-0.00060935,-1.33629e-24
2.08433,0.0307706,-0.000627594,4.69156e-23
2.05013,0.0306031,-0.000645926,-3.87773e-24
2.01542,0.0304217,-0.000664283,-7.51525e-23
1.98022,0.030226,-0.000682596,-2.69301e-24
1.94458,0.0300157,-0.000700798,8.57528e-24
1.90851,0.0297904,-0.000718826,1.24871e-22
1.87204,0.0295498,-0.000736628,7.56061e-23
1.83523,0.0292935,-0.000754172,-1.26425e-22
1.79809,0.0290207,-0.00077145,-7.26028e-23
1.76066,0.0287308,-0.000788485,9.01354e-23
1.72299,0.0284227,-0.000805331,-9.08854e-23
1.68511,0.0280954,-0.000822078,-8.15839e-23
1.64706,0.0277472,-0.000838849,9.14111e-23
1.60888,0.0273763,-0.000855806,7.64754e-23
1.57062,0.0269799,-0.00087314,3.96177e-26
1.53231,0.0265545,-0.000891055,-7.95425e-23
1.494,0.0260956,-0.000909743,3.34163e-22
1.45572,0.0255976,-0.000929341,1.52189e-22
1.41753,0.0250539,-0.000949871,-2.67814e-23
1.37946,0.0244579,-0.000971138,6.5424e-23
1.34155,0.0238039,-0.000992626,-1.75388e-22
1.30385,0.0230881,-0.00101337,-2.4251e-22
1.26639,0.0223104,-0.00103179,1.12181e-23
1.22921,0.0214724,-0.00104642,5.41023e-23
1.19236,0.0205724,-0.0010564,-1.96229e-22
1.15587,0.0196045,-0.00106151,1.49375e-22
1.11977,0.0185664,-0.00106176,-1.64742e-22
1.0841,0.0174621,-0.00105655,-1.73653e-23
1.04888,0.0163003,-0.0010451,-5.00203e-22
1.01417,0.015093,-0.00102687,3.05169e-23
0.979966,0.0138545,-0.00100163,6.40488e-22
0.946314,0.0126004,-0.000969508,1.25277e-22
0.913235,0.0113469,-0.00093095,-1.68583e-24
0.88075,0.0101098,-0.000886679,-4.18793e-22
0.848882,0.00890461,-0.000837626,-3.58315e-22
0.817648,0.00774562,-0.000784917,7.12009e-23
0.787066,0.00664569,-0.000729884,4.12551e-22
0.757151,0.0056161,-0.00067405,1.98213e-22
0.727914,0.00466647,-0.000619049,-5.30533e-23
0.699366,0.00380444,-0.000566459,-1.62091e-22
0.671516,0.00303427,-0.000517551,1.72141e-22
0.64437,0.00235411,-0.000473048,-2.1614e-22
0.617933,0.00175269,-0.000432918,-5.19864e-22
0.592207,0.00121091,-0.000396442,1.75558e-22
0.567193,0.000712173,-0.000362882,2.92026e-22
0.54289,0.000249014,-0.000331955,1.3449e-23
0.519297,-0.000181606,-0.000303534,3.28945e-23
0.496408,-0.000582425,-0.000277437,-9.6616e-24
0.47422,-0.000955917,-0.000253488,7.46665e-24
0.452725,-0.00130431,-0.000231515,-1.30441e-22
0.431915,-0.00162963,-0.00021135,-5.04519e-24
0.411782,-0.00193368,-0.000192836,3.47364e-22
0.392316,-0.00221813,-0.000175822,-2.084e-22
0.373505,-0.00248446,-0.000160172,-6.28812e-23
0.355339,-0.00273404,-0.00014576,2.77145e-22
0.337805,-0.00296809,-0.000132471,-2.22164e-22
0.32089,-0.00318776,-0.000120202,-7.39644e-23
0.304581,-0.00339405,-0.000108859,7.54594e-23
0.288864,-0.00358791,-9.83608e-05,8.36547e-24
0.273724,-0.00377019,-8.86315e-05,7.60799e-23
0.259147,-0.00394166,-7.96053e-05,2.96481e-24
0.245118,-0.00410303,-7.12231e-05,-6.63642e-23
0.231623,-0.00425495,-6.34323e-05,6.27376e-23
0.218646,-0.00439799,-5.61863e-05,5.31904e-23
0.206172,-0.00453269,-4.94436e-05,-6.68487e-23
0.194187,-0.00465951,-4.31673e-05,-6.66759e-23
0.182674,-0.00477889,-3.73247e-05,-3.52553e-23
0.17162,-0.00489119,-3.18869e-05,4.2604e-23
0.161009,-0.00499673,-2.68278e-05,7.35001e-23
0.150827,-0.00509579,-2.21248e-05,-8.19167e-23
0.14106,-0.00518859,-1.77577e-05,-8.31205e-23
0.131693,-0.00527528,-1.37086e-05,4.46256e-23
0.122712,-0.00535597,-9.96227e-06,9.37491e-23
0.114104,-0.00543066,-6.50532e-06,-5.96823e-23
0.105856,-0.0054993,-3.32668e-06,-4.50712e-23
0.0979541,-0.00556168,-4.1744e-07,-3.37078e-23
0.0903864,-0.00561745,2.22895e-06,9.25144e-24
0.0831405,-0.00566605,4.61636e-06,1.35533e-22
0.0762047,-0.00570661,6.74552e-06,-4.81493e-24
0.0695677,-0.00573779,8.61317e-06,-3.95425e-23
0.0632188,-0.0057576,1.02108e-05,5.10891e-23
0.057148,-0.00576292,1.15229e-05,-8.2002e-24
0.051346,-0.00574888,1.25238e-05,-2.27589e-23
0.0458046,-0.00570771,1.31738e-05,-6.0054e-23
0.0405168,-0.00562682,1.34145e-05,-3.20971e-23
0.0354769,-0.00548637,1.31668e-05,6.49245e-23
0.0306815,-0.00525805,1.2344e-05,5.12069e-23
0.0261298,-0.00491083,1.09069e-05,-1.42114e-23
0.0218242,-0.00442912,8.9563e-06,-9.66648e-23
0.0177718,-0.00383048,6.76387e-06,1.9391e-24
0.0139856,-0.00315887,4.65714e-06,3.44519e-23
0.0104854,-0.00246068,2.87687e-06,1.73164e-24
0.00729964,-0.00177187,1.54321e-06,-2.66128e-26
0.00446518,-0.00112061,6.80109e-07,-1.52039e-25
0.00202579,-0.000532227,2.06558e-07,4.24226e-25
2.57848e-05,-6.27871e-21,2.43677e-24,5.00458e-42
2.57848e-05,0,0,0
