y,U_0,U_1,U_2
3.032,0.00311135,-1.98688e-07,2.71356e-27
3.02782,0.00620445,-3.46176e-07,4.6768e-26
3.02345,0.00925603,-1.77409e-07,2.96724e-26
3.01889,0.0121252,5.62549e-07,-1.5193e-26
3.01413,0.0146404,2.05139e-06,-1.31956e-26
3.00916,0.0167327,4.40741e-06,-8.98342e-28
3.00397,0.0184478,7.7424e-06,-4.40205e-24
2.99856,0.0198573,1.21356e-05,-5.89612e-25
2.99291,0.0210231,1.76031e-05,-2.8112e-24
2.98702,0.0219985,2.40919e-05,-6.62018e-24
2.98087,0.0228273,3.14983e-05,5.24241e-24
2.97447,0.0235458,3.9686e-05,5.25556e-24
2.96779,0.0241826,4.85352e-05,4.47665e-24
2.96083,0.0247573,5.79401e-05,8.56112e-24
2.95359,0.0252832,6.78175e-05,-3.60934e-24
2.94605,0.02577,7.8115e-05,-1.50441e-23
2.93819,0.0262249,8.87846e-05,-7.37862e-24
2.93002,0.0266533,9.97864e-05,6.61146e-24
2.92153,0.0270594,0.00011107,6.66613e-24
2.91269,0.0274467,0.000122572,2.47505e-30
2.90351,0.0278184,0.000134247,-1.40788e-29
2.89397,0.0281759,0.00014606,-6.50343e-30
2.88406,0.0285183,0.000157993,3.61897e-26
2.87378,0.0288438,0.000170063,1.15617e-23
2.86311,0.0291508,0.000182281,1.16408e-23
2.85204,0.0294392,0.000194668,-2.18313e-23
2.84057,0.0297104,0.000207264,-1.12932e-23
2.82868,0.0299656,0.000220094,1.06358e-23
2.81638,0.0302051,0.000233155,-1.06282e-23
2.80364,0.0304287,0.000246448,-4.21755e-25
2.79047,0.0306363,0.000259984,2.04326e-23
2.77685,0.0308281,0.000273773,-9.71115e-24
2.76278,0.0310041,0.000287825,-1.02878e-23
2.74826,0.0311645,0.000302155,9.75002e-24
2.73327,0.0313097,0.000316775,-4.39147e-28
2.71782,0.0314401,0.000331697,8.54028e-26
2.70189,0.0315563,0.000346936,8.56641e-26
2.68549,0.0316589,0.000362503,8.3525e-26
2.66862,0.0317485,0.000378411,8.38781e-26
2.65127,0.031826,0.000394672,-7.14589e-28
2.63345,0.0318919,0.000411296,-6.73523e-28
2.61515,0.031947,0.000428292,7.86676e-26
2.59638,0.031992,0.000445669,8.25597e-28
2.57715,0.0320276,0.000463434,-1.8367e-23
2.55745,0.0320542,0.000481593,-7.08482e-25
2.5373,0.0320724,0.000500148,1.77784e-23
2.51669,0.0320828,0.000519103,1.15617e-28
2.49565,0.0320857,0.000538457,-1.58506e-25
2.47418,0.0320816,0.000558209,2.27424e-27
2.4523,0.0320707,0.000578353,3.85064e-23
2.43001,0.0320533,0.000598882,4.01688e-23
2.40733,0.0320298,0.000619787,-7.67728e-23
2.38428,0.0320001,0.000641053,-3.99243e-23
2.36088,0.0319646,0.000662663,3.94091e-23
2.33714,0.0319234,0.000684595,9.63165e-27
2.31309,0.0318765,0.00070682,-4.37026e-23
2.28875,0.0318239,0.000729308,4.38336e-23
2.26414,0.0317657,0.000752018,4.45969e-23
2.23928,0.0317019,0.000774905,-4.46094e-23
2.2142,0.0316324,0.000797918,-3.11697e-26
2.18893,0.031557,0.000820998,3.406e-27
2.16349,0.0314757,0.000844081,2.35764e-25
2.13791,0.0313883,0.000867096,5.43299e-23
2.11222,0.0312947,0.000889967,1.3833e-24
2.08645,0.0311944,0.000912617,-5.44043e-23
2.06062,0.0310875,0.000934963,-8.32545e-29
2.03477,0.0309735,0.000956924,-1.22832e-28
2.00893,0.0308523,0.00097842,-6.76242e-29
1.98312,0.0307236,0.000999374,2.64627e-25
1.95738,0.0305873,0.00101971,4.04689e-26
1.93173,0.0304432,0.00103937,-3.23677e-25
1.9062,0.0302913,0.00105828,-1.46629e-22
1.88082,0.0301314,0.00107639,1.4868e-22
1.85562,0.0299638,0.00109366,1.52073e-22
1.83062,0.0297885,0.00111004,-3.1438e-22
1.80586,0.0296057,0.00112551,1.62218e-22
1.78135,0.0294159,0.00114004,1.67316e-22
1.75711,0.0292193,0.00115361,-1.6768e-22
1.73318,0.0290165,0.0011662,-6.2085e-26
1.70957,0.028808,0.00117781,1.54295e-27
1.6863,0.0285945,0.00118842,3.126e-26
1.6634,0.0283767,0.00119803,1.94439e-22
1.64087,0.0281553,0.00120663,5.64117e-24
1.61873,0.0279311,0.00121421,-1.96124e-22
1.59701,0.0277048,0.00122076,2.07043e-22
1.5757,0.0274772,0.00122626,6.24921e-24
1.55483,0.0272492,0.00123072,-2.08609e-22
1.53439,0.0270214,0.0012341,2.65126e-27
1.51442,0.0267947,0.00123638,2.05564e-25
1.49489,0.0265695,0.00123755,2.25486e-22
1.47584,0.0263466,0.00123758,7.07826e-24
1.45725,0.0261265,0.00123644,5.05981e-24
1.43914,0.0259096,0.00123409,-2.27335e-22
1.4215,0.0256965,0.00123052,-2.39767e-22
1.40433,0.0254873,0.0012257,-4.29982e-24
1.38764,0.0252823,0.0012196,-2.49603e-22
1.37143,0.0250818,0.00121221,2.34956e-22
1.35568,0.0248857,0.00120351,4.92882e-22
1.34041,0.0246942,0.00119352,-2.45513e-22
1.3256,0.0245073,0.00118223,-5.10798e-22
1.31125,0.0243249,0.00116967,2.48311e-22
1.29736,0.0241468,0.00115587,5.18406e-22
1.28391,0.0239731,0.00114087,3.92462e-24
1.27091,0.0238035,0.00112472,-2.65362e-22
1.25834,0.0236378,0.00110747,-2.74955e-22
1.2462,0.023476,0.00108918,2.77404e-22
1.23447,0.0233178,0.00106994,2.80924e-22
1.22316,0.0231629,0.00104981,7.10081e-24
1.21225,0.0230113,0.00102885,3.00296e-22
1.20173,0.0228626,0.00100715,-6.09086e-22
1.19159,0.0227168,0.000984764,-3.05889e-22
1.18182,0.0225734,0.000961768,3.17443e-22
1.17242,0.0224323,0.000938219,-3.40008e-22
1.16337,0.0222931,0.000914174,6.64717e-24
1.15467,0.0221556,0.000889683,3.52821e-22
1.1463,0.0220195,0.000864787,-3.83205e-25
1.13825,0.0218844,0.000839519,-3.70105e-26
1.13052,0.0217498,0.000813904,4.24678e-22
1.1231,0.0216152,0.000787954,-1.74063e-23
1.11596,0.0214801,0.000761668,-4.48164e-22
1.10912,0.0213437,0.000735031,1.69851e-25
1.10255,0.0212052,0.000708014,-4.60303e-25
1.09624,0.0210636,0.000680569,-5.85164e-22
1.0902,0.0209177,0.000652628,-5.91629e-22
1.0844,0.0207659,0.000624104,-6.7283e-24
1.07884,0.0206062,0.000594888,7.41459e-22
1.07351,0.0204361,0.000564849,7.48621e-22
1.06841,0.0202525,0.000533835,1.51013e-24
1.06352,0.0200513,0.000501679,8.50937e-25
1.05884,0.0198272,0.000468202,-3.10762e-24
1.05435,0.0195732,0.000433224,1.00998e-24
1.05006,0.0192803,0.000396584,4.34177e-24
1.04595,0.0189367,0.000358159,1.67409e-21
1.04202,0.0185275,0.000317905,-2.33917e-22
1.03825,0.0180334,0.000275902,-1.9161e-21
1.03465,0.0174314,0.000232417,-2.88644e-24
1.03121,0.0166947,0.000187996,8.03072e-25
1.02792,0.0157955,0.000143552,5.05264e-24
1.02477,0.0147087,0.000100445,1.35581e-25
1.02176,0.0134191,6.0459e-05,8.01687e-25
1.01888,0.0119289,2.56107e-05,2.55278e-21
1.01613,0.0102684,-2.21485e-06,-3.09315e-21
1.0135,0.0085047,-2.16972e-05,-2.64511e-21
1.01098,0.00673635,-3.24729e-05,3.02766e-21
1.00858,0.00506282,-3.52847e-05,3.06658e-21
1.00629,0.00354704,-3.16601e-05,5.39656e-23
1.00409,0.002207,-2.33842e-05,-7.53099e-23
1.002,0.00103379,-1.22732e-05,1.02149e-21
1,0,0,0
