y,U_0,U_1,U_2
3.032,0.00505013,-6.36609e-07,3.1937e-27
3.02782,0.0100463,-1.65539e-06,5.78658e-26
3.02345,0.0147928,-2.61843e-06,3.71118e-26
3.01889,0.0188725,-3.0919e-06,-1.62166e-26
3.01413,0.0220668,-2.728e-06,-1.30737e-26
3.00916,0.0244724,-1.31608e-06,-1.15152e-27
3.00397,0.0262778,1.2101e-06,-3.77382e-24
2.99856,0.0276469,4.8263e-06,-6.68306e-25
2.99291,0.0287011,9.44255e-06,-2.04493e-24
2.98702,0.0295238,1.4958e-05,-5.15727e-24
2.98087,0.0301739,2.1308e-05,3.68885e-24
2.97447,0.0306941,2.8425e-05,3.7052e-24
2.96779,0.0311155,3.6249e-05,2.86053e-24
2.96083,0.0314605,4.47327e-05,5.32713e-24
2.95359,0.0317459,5.38409e-05,-1.92803e-24
2.94605,0.0319837,6.35493e-05,-8.42581e-24
2.93819,0.0321831,7.38419e-05,-4.06655e-24
2.93002,0.032351,8.47102e-05,3.28005e-24
2.92153,0.0324926,9.61512e-05,3.33229e-24
2.91269,0.0326118,0.000108166,1.79885e-30
2.90351,0.032712,0.000120761,-1.01106e-29
2.89397,0.0327955,0.000133944,-2.30476e-30
2.88406,0.0328643,0.000147726,1.795e-26
2.87378,0.03292,0.000162119,4.8819e-24
2.86311,0.032964,0.00017714,4.95452e-24
2.85204,0.0329973,0.000192804,-8.9727e-24
2.84057,0.0330208,0.000209129,-4.71732e-24
2.82868,0.0330353,0.000226133,4.33965e-24
2.81638,0.0330414,0.000243837,-4.35161e-24
2.80364,0.0330396,0.00026226,-1.98842e-25
2.79047,0.0330304,0.000281423,8.37671e-24
2.77685,0.0330143,0.000301348,-4.049e-24
2.76278,0.0329915,0.000322058,-4.23698e-24
2.74826,0.0329624,0.000343576,4.07671e-24
2.73327,0.0329273,0.000365924,-2.41341e-28
2.71782,0.0328864,0.000389128,3.62045e-26
2.70189,0.03284,0.000413211,3.63153e-26
2.68549,0.0327883,0.000438197,3.70171e-26
2.66862,0.0327316,0.00046411,3.7179e-26
2.65127,0.03267,0.000490975,-4.506e-28
2.63345,0.0326038,0.000518815,-4.31246e-28
2.61515,0.0325331,0.000547652,3.78762e-26
2.59638,0.0324581,0.000577508,-4.41288e-28
2.57715,0.0323791,0.000608404,-9.63286e-24
2.55745,0.0322962,0.000640357,-2.20684e-25
2.5373,0.0322096,0.000673383,9.47845e-24
2.51669,0.0321195,0.000707494,5.22066e-29
2.49565,0.0320262,0.000742699,-8.62455e-26
2.47418,0.0319298,0.000779002,2.88735e-27
2.4523,0.0318305,0.000816402,2.23371e-23
2.43001,0.0317285,0.000854889,2.33666e-23
2.40733,0.0316241,0.000894447,-4.54992e-23
2.38428,0.0315174,0.000935051,-2.34762e-23
2.36088,0.0314086,0.000976666,2.35857e-23
2.33714,0.0312979,0.00101924,6.54647e-27
2.31309,0.0311854,0.00106272,-2.67899e-23
2.28875,0.0310714,0.00110703,2.71073e-23
2.26414,0.030956,0.00115208,2.73638e-23
2.23928,0.0308392,0.00119776,-2.75635e-23
2.2142,0.0307212,0.00124394,-2.09516e-26
2.18893,0.0306021,0.00129049,2.37414e-27
2.16349,0.0304819,0.00133723,1.45186e-25
2.13791,0.0303606,0.001384,3.3891e-23
2.11222,0.0302382,0.00143057,8.85536e-25
2.08645,0.0301146,0.00147675,-3.39144e-23
2.06062,0.0299898,0.00152228,-5.11784e-29
2.03477,0.0298635,0.00156693,-7.65777e-29
2.00893,0.0297356,0.00161042,-4.19842e-29
1.98312,0.029606,0.00165249,1.62343e-25
1.95738,0.0294743,0.00169285,2.5278e-26
1.93173,0.0293402,0.00173124,-1.99278e-25
1.9062,0.0292036,0.00176737,-9.15826e-23
1.88082,0.029064,0.00180099,9.32041e-23
1.85562,0.0289212,0.00183183,9.4914e-23
1.83062,0.0287748,0.00185967,-1.97597e-22
1.80586,0.0286244,0.00188429,1.03005e-22
1.78135,0.0284698,0.00190551,1.05263e-22
1.75711,0.0283107,0.00192316,-1.06566e-22
1.73318,0.0281468,0.00193711,-3.84615e-26
1.70957,0.0279779,0.00194728,1.08519e-27
1.6863,0.0278037,0.00195359,1.94691e-26
1.6634,0.0276242,0.001956,1.28858e-22
1.64087,0.0274392,0.00195451,2.33072e-24
1.61873,0.0272486,0.00194914,-1.3141e-22
1.59701,0.0270525,0.00193994,1.42549e-22
1.5757,0.0268508,0.00192698,2.29435e-24
1.55483,0.0266437,0.00191035,-1.45675e-22
1.53439,0.0264312,0.00189018,1.76208e-27
1.51442,0.0262136,0.00186658,1.51288e-25
1.49489,0.0259909,0.00183971,1.68886e-22
1.47584,0.0257635,0.00180974,2.19262e-24
1.45725,0.0255316,0.00177684,7.55637e-24
1.43914,0.0252955,0.0017412,-1.84337e-22
1.4215,0.0250554,0.00170302,-1.86762e-22
1.40433,0.0248118,0.0016625,-7.70657e-24
1.38764,0.024565,0.00161987,-2.07e-22
1.37143,0.0243154,0.00157534,2.02636e-22
1.35568,0.0240633,0.00152913,4.29634e-22
1.34041,0.0238092,0.00148147,-2.247e-22
1.3256,0.0235535,0.00143258,-4.58695e-22
1.31125,0.0232967,0.00138269,2.31144e-22
1.29736,0.0230391,0.00133201,4.86766e-22
1.28391,0.0227812,0.00128077,-1.1513e-25
1.27091,0.0225235,0.00122915,-2.55164e-22
1.25834,0.0222663,0.00117737,-2.71573e-22
1.2462,0.0220102,0.0011256,2.80097e-22
1.23447,0.0217556,0.00107403,2.77881e-22
1.22316,0.0215028,0.00102281,9.30652e-24
1.21225,0.0212524,0.00097209,3.04863e-22
1.20173,0.0210046,0.000922006,-6.24505e-22
1.19159,0.0207598,0.000872676,-3.12963e-22
1.18182,0.0205184,0.000824203,3.26023e-22
1.17242,0.0202808,0.000776676,-3.47878e-22
1.16337,0.020047,0.000730168,5.33417e-24
1.15467,0.0198176,0.00068474,3.59497e-22
1.1463,0.0195925,0.000640439,-3.98568e-25
1.13825,0.0193721,0.000597297,-3.56511e-26
1.13052,0.0191564,0.000555336,4.14522e-22
1.1231,0.0189456,0.000514566,-1.03134e-23
1.11596,0.0187396,0.000474987,-4.30729e-22
1.10912,0.0185384,0.000436591,1.60163e-25
1.10255,0.0183419,0.000399362,-4.38311e-25
1.09624,0.01815,0.000363279,-5.1382e-22
1.0902,0.0179623,0.000328316,-5.18908e-22
1.0844,0.0177785,0.000294447,-4.69463e-24
1.07884,0.0175981,0.000261644,5.94605e-22
1.07351,0.0174205,0.000229878,5.99932e-22
1.06841,0.0172449,0.000199119,1.21404e-24
1.06352,0.0170703,0.000169343,6.70946e-25
1.05884,0.0168953,0.000140528,-2.30537e-24
1.05435,0.0167184,0.000112654,6.2999e-25
1.05006,0.0165373,8.57152e-05,3.09905e-24
1.04595,0.0163493,5.97125e-05,1.04707e-21
1.04202,0.0161507,3.46659e-05,-1.20846e-22
1.03825,0.0159364,1.0619e-05,-1.17288e-21
1.03465,0.0156996,-1.23492e-05,-1.61805e-24
1.03121,0.0154304,-3.4107e-05,4.33544e-25
1.02792,0.0151145,-5.44415e-05,2.91907e-24
1.02477,0.0147304,-7.30143e-05,8.26691e-26
1.02176,0.014245,-8.92895e-05,6.97808e-25
1.01888,0.0136071,-0.000102435,2.33113e-21
1.01613,0.0127407,-0.000111222,-3.90856e-21
1.0135,0.0115508,-0.000114024,-2.17804e-21
1.01098,0.00997295,-0.000109192,4.09411e-21
1.00858,0.0080623,-9.617e-05,5.35328e-21
1.00629,0.00599349,-7.64177e-05,-8.63546e-23
1.00409,0.00392855,-5.25869e-05,-8.31748e-23
1.002,0.00193493,-2.67932e-05,1.84845e-21
1,0,0,0
