y,U_0,U_1,U_2
3.032,0.00338092,1.56809e-06,4.34241e-24
3.02746,0.00692674,5.41506e-06,4.09304e-24
3.02243,0.0105502,1.21589e-05,8.68354e-25
3.01698,0.0138661,2.15668e-05,2.01569e-22
3.01113,0.0165506,3.28333e-05,4.25678e-23
3.00491,0.0185837,4.5337e-05,-1.55689e-22
2.99834,0.0201191,5.87501e-05,2.00431e-22
2.99143,0.0213038,7.28108e-05,3.73612e-22
2.98417,0.0222404,8.73192e-05,1.82778e-22
2.97658,0.022997,0.000102149,-4.63317e-22
2.96863,0.0236197,0.000117229,-6.94313e-23
2.96034,0.02414,0.000132521,2.23358e-22
2.95168,0.0245802,0.000148012,-5.06579e-22
2.94265,0.0249565,0.000163703,2.14025e-22
2.93324,0.0252807,0.000179608,2.93586e-22
2.92344,0.0255618,0.000195745,9.18651e-24
2.91324,0.0258067,0.000212139,-1.60088e-22
2.90262,0.0260209,0.000228814,-4.16071e-22
2.89157,0.0262085,0.000245798,5.25973e-22
2.88008,0.0263731,0.000263116,5.1248e-22
2.86813,0.0265173,0.000280794,-3.21539e-22
2.85572,0.0266434,0.000298857,-2.99483e-22
2.84283,0.0267532,0.000317328,4.90269e-22
2.82944,0.0268482,0.000336232,1.17656e-23
2.81555,0.0269298,0.000355587,-6.88222e-22
2.80114,0.026999,0.000375415,1.84806e-22
2.7862,0.0270567,0.000395733,2.08927e-22
2.77072,0.0271037,0.000416557,3.77256e-22
2.75469,0.0271405,0.000437904,-3.22844e-22
2.73808,0.0271677,0.000459785,-5.58269e-22
2.7209,0.0271858,0.000482213,6.84677e-22
2.70314,0.0271952,0.000505196,1.04928e-23
2.68478,0.0271962,0.000528743,-5.59025e-23
2.66581,0.027189,0.000552858,2.89911e-22
2.64623,0.0271739,0.000577544,-5.2688e-22
2.62602,0.0271511,0.000602802,-5.92053e-22
2.60519,0.0271207,0.000628628,2.14571e-22
2.58373,0.0270828,0.000655019,2.54624e-22
2.56163,0.0270376,0.000681965,8.92206e-23
2.53888,0.026985,0.000709454,3.21272e-22
2.5155,0.0269252,0.000737473,5.93784e-25
2.49147,0.0268581,0.000766002,-3.83858e-22
2.46679,0.0267837,0.000795018,-5.77573e-22
2.44147,0.0267021,0.000824497,8.62996e-23
2.41551,0.0266132,0.000854407,1.0536e-22
2.38892,0.0265168,0.000884715,4.26811e-24
2.3617,0.026413,0.000915381,-1.22233e-22
2.33386,0.0263017,0.000946364,5.08781e-22
2.3054,0.0261828,0.000977617,5.18938e-22
2.27635,0.0260561,0.00100909,-9.91072e-22
2.2467,0.0259215,0.00104073,4.7735e-22
2.21649,0.025779,0.00107248,1.12985e-22
2.18571,0.0256283,0.00110429,-5.04758e-22
2.15439,0.0254694,0.00113609,3.52458e-22
2.12256,0.0253021,0.00116782,1.73131e-22
2.09022,0.0251263,0.00119942,-1.3e-22
2.05741,0.0249419,0.00123085,-4.56165e-22
2.02414,0.0247487,0.00126204,9.6207e-22
1.99044,0.0245467,0.00129294,-2.57939e-23
1.95633,0.0243359,0.00132353,-4.0667e-22
1.92186,0.0241161,0.00135378,2.94543e-22
1.88703,0.0238875,0.00138367,-6.99187e-22
1.85189,0.0236501,0.00141322,-1.3294e-21
1.81647,0.0234039,0.00144253,-1.94032e-22
1.78079,0.0231493,0.00147149,1.37164e-21
1.74489,0.0228852,0.00149969,1.02993e-21
1.7088,0.0226099,0.00152668,-4.41845e-23
1.67256,0.022322,0.00155185,-4.58789e-22
1.6362,0.022021,0.0015747,5.2897e-22
1.59975,0.0217071,0.00159508,-1.30004e-21
1.56325,0.0213801,0.00161286,-2.39014e-21
1.52674,0.0210403,0.0016279,2.0628e-21
1.49024,0.0206877,0.00164006,2.64344e-21
1.45379,0.0203228,0.00164927,-1.45051e-21
1.41743,0.0199457,0.00165547,-7.92857e-22
1.38119,0.0195573,0.00165867,7.94674e-22
1.3451,0.0191584,0.00165896,1.55334e-21
1.3092,0.0187504,0.00165651,-1.79038e-23
1.27351,0.0183353,0.00165157,-7.36369e-22
1.23807,0.0179154,0.00164448,8.52902e-22
1.20291,0.0174938,0.00163558,-1.73045e-21
1.16805,0.0170734,0.00162524,-2.37542e-21
1.13352,0.0166574,0.00161375,6.59209e-22
1.09935,0.0162485,0.00160134,1.03448e-21
1.06557,0.0158489,0.00158813,-8.86623e-23
1.0322,0.0154602,0.00157418,3.24368e-21
0.999264,0.0150833,0.00155949,8.74291e-22
0.966781,0.0147187,0.00154404,-1.74456e-21
0.934772,0.0143666,0.00152783,-2.37761e-21
0.903258,0.0140268,0.00151084,-6.57568e-22
0.872256,0.0136992,0.00149307,-7.4491e-22
0.841783,0.0133834,0.00147454,-2.38322e-22
0.811853,0.0130789,0.0014553,3.99216e-21
0.78248,0.0127851,0.0014354,1.59672e-21
0.753677,0.0125017,0.001415,-1.29268e-21
0.725454,0.0122281,0.00139426,-1.22969e-21
0.697821,0.0119635,0.00137334,-2.84049e-22
0.670786,0.011707,0.0013524,-1.30998e-21
0.644356,0.0114582,0.00133153,-3.47068e-23
0.618536,0.0112165,0.00131076,9.78756e-22
0.59333,0.0109818,0.00129006,1.55706e-21
0.568742,0.0107538,0.00126935,4.00633e-22
0.544773,0.0105324,0.00124852,-1.55935e-21
0.521425,0.0103174,0.00122747,-5.77652e-22
0.498695,0.0101085,0.00120609,1.14375e-21
0.476584,0.00990563,0.00118431,2.04e-24
0.455088,0.00970856,0.00116206,-1.75173e-21
0.434204,0.0095171,0.00113929,6.49253e-23
0.413927,0.00933101,0.00111596,4.95204e-22
0.394252,0.00915007,0.00109206,-4.63935e-22
0.375173,0.00897404,0.00106757,-3.27105e-21
0.356683,0.00880267,0.00104249,-9.0383e-22
0.338775,0.0086357,0.00101681,3.41734e-21
0.321439,0.0084729,0.000990552,1.51243e-21
0.304668,0.00831401,0.000963725,-1.58559e-23
0.288453,0.00815879,0.000936353,-2.64479e-21
0.272782,0.00800701,0.000908458,1.02048e-22
0.257646,0.00785842,0.000880069,3.14189e-21
0.243034,0.00771278,0.000851215,9.74745e-22
0.228935,0.00756985,0.000821929,3.81716e-22
0.215339,0.00742937,0.000792242,2.63546e-21
0.202233,0.00729106,0.000762188,-1.28343e-21
0.189605,0.00715461,0.000731799,-3.8995e-21
0.177445,0.00701969,0.000701107,1.2908e-21
0.16574,0.00688593,0.000670141,-5.56055e-23
0.154478,0.00675289,0.00063893,-1.39986e-21
0.143648,0.0066201,0.000607498,3.29921e-22
0.133237,0.00648698,0.000575868,7.49617e-23
0.123234,0.00635288,0.000544058,-3.44635e-22
0.113627,0.00621698,0.000512083,2.71234e-22
0.104404,0.00607833,0.000479952,3.38334e-22
0.0955559,0.00593573,0.000447672,-1.60409e-21
0.0870708,0.0057877,0.000415244,-5.22349e-22
0.078939,0.00563232,0.000382662,-9.56319e-23
0.0711515,0.00546703,0.000349918,2.18756e-21
0.0637001,0.00528836,0.000316999,-1.70835e-21
0.0565782,0.00509144,0.00028389,-1.38695e-21
0.0497811,0.00486912,0.000250577,3.91237e-21
0.0433068,0.00461063,0.000217063,2.2903e-21
0.0371566,0.00429933,0.000183384,8.39559e-22
0.0313366,0.00390981,0.000149638,-1.39377e-21
0.025859,0.00340908,0.000116054,-2.81719e-22
0.0207438,0.00277913,8.34661e-05,-4.1467e-21
0.0160211,0.00206936,5.41369e-05,4.17911e-22
0.0117319,0.00139688,3.0811e-05,7.33275e-22
0.00792915,0.000853576,1.45413e-05,-2.2487e-21
0.00467375,0.000457192,4.74884e-06,-4.88863e-23
0.00202581,0.000186532,5.0258e-07,-6.78977e-22
2.57848e-05,0,0,0
