y,U_0,U_1,U_2
3.032,-0.00163475,-8.69804e-06,-2.82234e-27
3.02782,-0.00298833,-2.65959e-05,-6.88078e-26
3.02345,-0.00390037,-4.91994e-05,-5.41282e-26
3.01889,-0.00433449,-6.9964e-05,8.7701e-27
3.01413,-0.00448291,-8.64313e-05,4.3411e-27
3.00916,-0.0045168,-9.97129e-05,5.30572e-28
3.00397,-0.00450587,-0.000110469,1.68854e-24
2.99856,-0.0044752,-0.000118809,3.47588e-25
2.99291,-0.0044347,-0.000124794,7.80711e-25
2.98702,-0.00438865,-0.000128484,2.0785e-24
2.98087,-0.0043389,-0.000129925,-1.59692e-24
2.97447,-0.00428619,-0.000129148,-1.55988e-24
2.96779,-0.00423057,-0.000126174,-1.15967e-24
2.96083,-0.00417175,-0.000121019,-2.09366e-24
2.95359,-0.00410913,-0.000113696,9.0621e-25
2.94605,-0.00404191,-0.000104215,3.36991e-24
2.93819,-0.00396911,-9.25853e-05,1.41604e-24
2.93002,-0.00388955,-7.88115e-05,-1.35743e-24
2.92153,-0.00380192,-6.28957e-05,-1.25209e-24
2.91269,-0.00370477,-4.48348e-05,8.23108e-32
2.90351,-0.00359651,-2.46186e-05,-5.18145e-30
2.89397,-0.00347541,-2.22881e-06,1.24974e-30
2.88406,-0.00333965,2.23635e-05,3.57254e-27
2.87378,-0.00318734,4.91998e-05,-4.12088e-25
2.86311,-0.00301647,7.83363e-05,-1.33108e-25
2.85204,-0.00282504,0.000109846,2.30976e-25
2.84057,-0.00261099,0.000143821,1.16781e-25
2.82868,-0.00237231,0.000180376,1.7052e-25
2.81638,-0.00210699,0.000219647,-1.06978e-24
2.80364,-0.00181313,0.000261798,-1.53623e-26
2.79047,-0.00148891,0.000307019,2.75047e-24
2.77685,-0.00113265,0.000355529,-1.99326e-24
2.76278,-0.000742835,0.000407575,-1.69837e-24
2.74826,-0.000318161,0.000463439,2.00214e-24
2.73327,0.000142461,0.000523433,-4.19359e-28
2.71782,0.000639881,0.000587906,2.11275e-26
2.70189,0.00117469,0.000657236,2.1192e-26
2.68549,0.00174721,0.000731837,2.78753e-26
2.66862,0.00235745,0.00081215,2.80294e-26
2.65127,0.00300511,0.000898648,-9.9164e-28
2.63345,0.00368959,0.00099183,-9.48895e-28
2.61515,0.00440995,0.00109222,3.74984e-26
2.59638,0.00516502,0.00120034,-2.57314e-27
2.57715,0.00595335,0.00131682,-1.20516e-23
2.55745,0.00677343,0.00144229,2.20522e-25
2.5373,0.00762716,0.00157828,1.23658e-23
2.51669,0.00852478,0.00172861,9.41793e-29
2.49565,0.0094788,0.00189829,-1.2621e-25
2.47418,0.0104898,0.00209074,1.0209e-26
2.4523,0.0115436,0.00230632,3.75246e-23
2.43001,0.0126191,0.0025432,3.8315e-23
2.40733,0.0136974,0.002799,-7.64904e-23
2.38428,0.0147648,0.00307154,-3.91698e-23
2.36088,0.015813,0.00335927,3.89773e-23
2.33714,0.0168378,0.0036611,1.56827e-26
2.31309,0.0178376,0.00397619,-3.77888e-23
2.28875,0.0188123,0.00430378,3.69227e-23
2.26414,0.0197635,0.0046431,3.8479e-23
2.23928,0.0206934,0.00499327,-3.76945e-23
2.2142,0.0216054,0.00535336,-2.44259e-26
2.18893,0.0225039,0.00572243,-7.65026e-27
2.16349,0.0233937,0.0060995,1.50636e-25
2.13791,0.0242802,0.00648366,2.71545e-23
2.11222,0.0251696,0.00687445,-1.39766e-25
2.08645,0.0260683,0.00727161,-2.80345e-23
2.06062,0.026982,0.00767508,-7.38421e-29
2.03477,0.0279166,0.00808518,-8.99058e-29
2.00893,0.0288777,0.00850272,-3.90287e-29
1.98312,0.0298709,0.008929,2.1457e-26
1.95738,0.0309011,0.00936556,2.23034e-26
1.93173,0.0319716,0.00981368,-2.95136e-27
1.9062,0.0330838,0.0102741,1.49126e-23
1.88082,0.0342359,0.0107469,-2.51087e-23
1.85562,0.0354225,0.0112305,-1.59492e-23
1.83062,0.0366346,0.0117218,6.94557e-23
1.80586,0.0378616,0.0122171,-4.94541e-23
1.78135,0.0390923,0.0127117,-4.61604e-23
1.75711,0.0403169,0.0132011,5.06901e-23
1.73318,0.0415286,0.0136819,3.42672e-26
1.70957,0.0427227,0.0141518,3.63722e-28
1.6863,0.0438957,0.0146077,-1.83327e-26
1.6634,0.045046,0.0150479,-8.76565e-23
1.64087,0.0461743,0.0154719,-2.75905e-24
1.61873,0.0472797,0.0158778,8.81924e-23
1.59701,0.0483603,0.0162637,-9.68925e-23
1.5757,0.0494144,0.016628,-2.79596e-24
1.55483,0.0504395,0.0169689,9.7754e-23
1.53439,0.051433,0.0172844,-6.56851e-28
1.51442,0.0523926,0.0175732,-8.84615e-26
1.49489,0.0533168,0.0178344,-1.01835e-22
1.47584,0.0542044,0.0180676,-2.18641e-24
1.45725,0.0550551,0.018273,2.19597e-24
1.43914,0.0558695,0.0184515,9.87761e-23
1.4215,0.0566484,0.0186045,1.04498e-22
1.40433,0.0573938,0.018734,-3.61452e-24
1.38764,0.0581085,0.0188425,9.93141e-23
1.37143,0.0587958,0.0189325,-1.01088e-22
1.35568,0.0594598,0.019007,-1.99691e-22
1.34041,0.0601048,0.0190684,9.9548e-23
1.3256,0.060735,0.0191187,2.0271e-22
1.31125,0.0613542,0.0191594,-1.0371e-22
1.29736,0.0619657,0.0191913,-2.14075e-22
1.28391,0.0625713,0.019214,1.81994e-24
1.27091,0.0631717,0.0192264,1.14099e-22
1.25834,0.0637654,0.0192263,1.30062e-22
1.2462,0.0643492,0.0192106,-1.41269e-22
1.23447,0.0649175,0.0191753,-1.32562e-22
1.22316,0.0654619,0.0191157,-9.6978e-24
1.21225,0.0659717,0.0190264,-1.57794e-22
1.20173,0.0664331,0.0189016,3.35684e-22
1.19159,0.0668295,0.0187356,1.65516e-22
1.18182,0.0671406,0.0185226,-1.76301e-22
1.17242,0.0673422,0.0182568,1.61844e-22
1.16337,0.0674064,0.0179328,-6.73535e-24
1.15467,0.0673031,0.0175452,-1.71306e-22
1.1463,0.0669996,0.0170902,3.3475e-25
1.13825,0.0664609,0.0165669,-4.19372e-26
1.13052,0.0656467,0.0159742,-5.29326e-23
1.1231,0.0645114,0.0153097,4.32291e-24
1.11596,0.0630173,0.0145749,5.83548e-23
1.10912,0.0611375,0.0137737,2.77531e-25
1.10255,0.0588491,0.0129133,4.38133e-25
1.09624,0.0561259,0.0120025,-2.79987e-22
1.0902,0.0529392,0.011046,-3.4143e-22
1.0844,0.0492947,0.0100535,-1.1043e-22
1.07884,0.0452439,0.00904103,4.05679e-22
1.07351,0.0408552,0.0080246,4.58409e-22
1.06841,0.0362014,0.00701866,-7.19071e-25
1.06352,0.0313766,0.00603688,-2.50035e-25
1.05884,0.0265109,0.00509709,-7.14996e-24
1.05435,0.0217384,0.00421734,6.06611e-25
1.05006,0.0171598,0.00340993,8.14094e-24
1.04595,0.0128607,0.00268381,5.55561e-22
1.04202,0.0089358,0.00204646,8.24706e-24
1.03825,0.00546424,0.00150304,-5.49865e-22
1.03465,0.00245988,0.00105299,-6.25425e-24
1.03121,-0.000123283,0.000689667,4.19913e-25
1.02792,-0.00233354,0.000405929,6.8894e-24
1.02477,-0.00420144,0.00019521,8.27405e-26
1.02176,-0.00576285,4.91834e-05,-1.7466e-25
1.01888,-0.00706877,-4.22177e-05,4.94761e-22
1.01613,-0.00816328,-8.82957e-05,-8.20226e-22
1.0135,-0.00905047,-9.76653e-05,-4.10854e-22
1.01098,-0.00963286,-7.84042e-05,9.27554e-22
1.00858,-0.00963936,-4.04703e-05,1.41791e-21
1.00629,-0.00873833,4.39997e-07,-1.21374e-22
1.00409,-0.00678686,2.78754e-05,1.35756e-23
1.002,-0.00385905,3.05507e-05,7.5691e-22
1,0,0,0
