/*--------------------------------*- C++ -*----------------------------------*\
  =========                 |
  \\      /  F ield         | OpenFOAM: The Open Source CFD Toolbox
   \\    /   O peration     | Website:  https://openfoam.org
    \\  /    A nd           | Version:  9
     \\/     M anipulation  |
\*---------------------------------------------------------------------------*/
FoamFile
{
    format      ascii;
    class       volTensorField;
    location    "0";
    object      grad(U);
}
// * * * * * * * * * * * * * * * * * * * * * * * * * * * * * * * * * * * * * //

dimensions      [0 0 -1 0 0 0 0];

internalField   nonuniform List<tensor> 
14751
(
(0 0 0 -7.00031 0 0 0 0 0)
(-4.33821e-17 0 0 -7.00044 0 0 0 0 0)
(6.418e-17 0 0 -7.0001 0 0 -9.95215e-24 0 0)
(-3.36896e-17 0 0 -6.99983 0 0 9.95177e-24 0 0)
(2.74291e-17 0 0 -6.99962 0 0 -1.9903e-23 0 0)
(-1.40114e-17 0 0 -6.99946 0 0 3.38342e-22 0 0)
(1.19255e-17 0 0 -6.99927 0 0 0 0 0)
(-2.06448e-17 0 0 -6.99918 0 0 -4.97542e-24 0 0)
(-1.30428e-17 0 0 -6.99917 0 0 0 0 0)
(0 0 0 -6.99918 0 0 -4.97542e-24 0 0)
(4.48671e-17 0 0 -6.99918 0 0 0 0 0)
(-4.35296e-17 0 0 -6.99946 0 0 6.46831e-22 0 0)
(5.03858e-17 0 0 -7.00003 0 0 0 0 0)
(-3.67541e-17 0 0 -7.00051 0 0 -1.99055e-23 0 0)
(3.56327e-17 0 0 -7.00088 0 0 -6.17103e-22 0 0)
(-1.96826e-17 0 0 -7.00115 0 0 -3.18517e-22 0 0)
(1.74449e-17 0 0 -7.00132 0 0 1.99078e-23 0 0)
(-4.01862e-17 0 0 -7.00148 0 0 -1.99083e-23 0 0)
(3.03437e-17 0 0 -7.00164 0 0 -3.18539e-22 0 0)
(-3.10888e-17 0 0 -7.00162 0 0 -3.18538e-22 0 0)
(4.17501e-18 0 0 -7.00142 0 0 0 0 0)
(3.02679e-17 0 0 -7.00121 0 0 -3.38427e-22 0 0)
(-3.57755e-18 0 0 -7.001 0 0 1.99069e-23 0 0)
(-8.46786e-17 0 0 -7.00057 0 0 -1.99056e-23 0 0)
(2.78026e-17 0 0 -6.99989 0 0 1.99037e-23 0 0)
(4.31562e-17 0 0 -6.99931 0 0 6.36866e-22 0 0)
(-7.00224e-18 0 0 -6.99886 0 0 0 0 0)
(8.12349e-18 0 0 -6.9986 0 0 1.592e-22 0 0)
(8.1234e-18 0 0 -6.99852 0 0 0 0 0)
(-2.72746e-17 0 0 -6.99845 0 0 0 0 0)
(1.91525e-17 0 0 -6.99837 0 0 0 0 0)
(-4.91794e-18 0 0 -6.99829 0 0 0 0 0)
(6.40889e-18 0 0 -6.99822 0 0 0 0 0)
(6.25994e-18 0 0 -6.99815 0 0 9.94939e-24 0 0)
(-4.91779e-18 0 0 -6.99808 0 0 -9.94928e-24 0 0)
(-8.01082e-17 0 0 -6.99815 0 0 3.2833e-22 0 0)
(5.9468e-17 0 0 -6.99838 0 0 -3.28341e-22 0 0)
(-1.8635e-18 0 0 -6.99862 0 0 -3.18402e-22 0 0)
(9.46424e-18 0 0 -6.99886 0 0 0 0 0)
(2.76468e-17 0 0 -6.99932 0 0 0 0 0)
(-3.59299e-17 0 0 -7.00005 0 0 2.48802e-24 0 0)
(4.37564e-17 0 0 -7.00071 0 0 -2.48826e-24 0 0)
(-4.42857e-17 0 0 -7.00123 0 0 -2.48844e-24 0 0)
(-5.45752e-17 0 0 -7.00152 0 0 2.48854e-24 0 0)
(8.50679e-17 0 0 -7.0016 0 0 1.24429e-24 0 0)
(-1.93108e-17 0 0 -7.00167 0 0 -1.2443e-24 0 0)
(-7.97854e-18 0 0 -7.00175 0 0 -6.22157e-25 0 0)
(4.01868e-17 0 0 -7.00183 0 0 -1.58652e-22 0 0)
(-8.82784e-17 0 0 -7.0019 0 0 0 0 0)
(5.15205e-17 0 0 -7.00197 0 0 1.55544e-25 0 0)
(-6.26343e-18 0 0 -7.00205 0 0 -1.55546e-25 0 0)
(6.26343e-18 0 0 -7.00205 0 0 -3.11091e-25 0 0)
(-5.15205e-17 0 0 -7.00197 0 0 3.11088e-25 0 0)
(8.82784e-17 0 0 -7.0019 0 0 6.2217e-25 0 0)
(-4.01868e-17 0 0 -7.00183 0 0 1.59896e-22 0 0)
(7.97854e-18 0 0 -7.00175 0 0 -2.48863e-24 0 0)
(1.93108e-17 0 0 -7.00167 0 0 1.2443e-24 0 0)
(-8.50679e-17 0 0 -7.0016 0 0 0 0 0)
(5.45752e-17 0 0 -7.00152 0 0 0 0 0)
(-4.02417e-18 0 0 -7.00123 0 0 0 0 0)
(1.2302e-17 0 0 -7.00072 0 0 -6.36995e-22 0 0)
(-5.91042e-17 0 0 -7.00007 0 0 -1.2689e-21 0 0)
(9.92094e-17 0 0 -6.99934 0 0 -4.97554e-24 0 0)
(1.86357e-18 0 0 -6.99888 0 0 -4.97522e-24 0 0)
(-2.25057e-17 0 0 -6.99865 0 0 -4.97505e-24 0 0)
(-1.71278e-18 0 0 -6.99842 0 0 3.38292e-22 0 0)
(-3.711e-17 0 0 -6.99819 0 0 -3.28332e-22 0 0)
(1.89276e-17 0 0 -6.99809 0 0 0 0 0)
(1.89276e-17 0 0 -6.99811 0 0 9.94932e-24 0 0)
(-2.76467e-17 0 0 -6.99812 0 0 -9.94935e-24 0 0)
(1.89277e-17 0 0 -6.99814 0 0 0 0 0)
(-1.64689e-17 0 0 -6.99816 0 0 0 0 0)
(1.89278e-17 0 0 -6.99818 0 0 0 0 0)
(1.89279e-17 0 0 -6.99819 0 0 0 0 0)
(-1.6469e-17 0 0 -6.99821 0 0 3.97979e-23 0 0)
(1.7065e-17 0 0 -6.99824 0 0 -1.9899e-23 0 0)
(-8.71144e-17 0 0 -6.99826 0 0 -3.97982e-23 0 0)
(5.24623e-17 0 0 -6.99828 0 0 3.97983e-23 0 0)
(-5.29106e-18 0 0 -6.9983 0 0 -3.97984e-23 0 0)
(1.72143e-17 0 0 -6.99833 0 0 -1.98993e-23 0 0)
(-1.64694e-17 0 0 -6.99835 0 0 3.97987e-23 0 0)
(-5.29111e-18 0 0 -6.99837 0 0 0 0 0)
(3.01066e-17 0 0 -6.99839 0 0 0 0 0)
(2.2729e-17 0 0 -6.99847 0 0 -1.98997e-23 0 0)
(-5.90983e-17 0 0 -6.99861 0 0 1.99001e-23 0 0)
(-2.55636e-17 0 0 -6.99876 0 0 0 0 0)
(5.62684e-17 0 0 -6.9989 0 0 0 0 0)
(9.08935e-18 0 0 -6.99915 0 0 0 0 0)
(-5.66939e-18 0 0 -6.99949 0 0 0 0 0)
(1.33925e-18 0 0 -6.99994 0 0 -6.41899e-22 0 0)
(9.31853e-18 0 0 -7.00045 0 0 4.97633e-24 0 0)
(-4.89021e-17 0 0 -7.00067 0 0 0 0 0)
(-2.66872e-17 0 0 -7.00064 0 0 4.97646e-24 0 0)
(5.53129e-17 0 0 -7.0006 0 0 2.48822e-23 0 0)
(-1.89343e-17 0 0 -7.00058 0 0 -1.49293e-23 0 0)
(1.51324e-17 0 0 -7.00051 0 0 4.97637e-24 0 0)
(-1.25225e-17 0 0 -7.00042 0 0 1.6173e-22 0 0)
(4.92077e-18 0 0 -7.00029 0 0 -2.49783e-24 0 0)
(0 0 0 -7.00011 0 0 -3.1846e-22 0 0)
(0 0 0 -1.4272e-15 0 0 -9.75624e-21 0 0)
(-4.00548e-18 0 0 0 0 0 0 0 0)
(6.08412e-18 0 0 -1.42403e-15 0 0 -1.88608e-20 0 0)
(1.55984e-18 0 0 0 0 0 -6.06603e-22 0 0)
(-8.63165e-19 0 0 0 0 0 3.74614e-20 0 0)
(1.61575e-17 0 0 0 0 0 6.01607e-22 0 0)
(-3.79861e-17 0 0 1.40172e-15 0 0 2.9944e-22 0 0)
(-4.25765e-18 0 0 1.39515e-15 0 0 0 0 0)
(9.32252e-18 0 0 0 0 0 -4.03411e-20 0 0)
(-4.79099e-17 0 0 0 0 0 2.36175e-21 0 0)
(4.88586e-17 0 0 0 0 0 0 0 0)
(-4.34497e-17 0 0 0 0 0 -5.849e-22 0 0)
(2.86118e-17 0 0 0 0 0 0 0 0)
(1.47383e-17 0 0 0 0 0 0 0 0)
(-4.61644e-17 0 0 0 0 0 3.28921e-20 0 0)
(4.6624e-17 0 0 0 0 0 4.88402e-21 0 0)
(-6.37612e-18 0 0 -1.33931e-15 0 0 -3.66218e-20 0 0)
(-7.49059e-18 0 0 1.33398e-15 0 0 -9.11898e-21 0 0)
(1.57348e-17 0 0 0 0 0 9.36789e-21 0 0)
(-9.37374e-18 0 0 1.32396e-15 0 0 2.82828e-22 0 0)
(-2.5767e-17 0 0 0 0 0 4.50922e-21 0 0)
(3.27418e-17 0 0 -1.31481e-15 0 0 -4.2131e-21 0 0)
(-2.63972e-17 0 0 -1.31058e-15 0 0 0 0 0)
(1.29191e-17 0 0 2.61317e-15 0 0 0 0 0)
(-2.22648e-17 0 0 1.30281e-15 0 0 0 0 0)
(1.76048e-17 0 0 0 0 0 -5.55106e-22 0 0)
(-4.04985e-17 0 0 1.29595e-15 0 0 3.10066e-20 0 0)
(4.18225e-17 0 0 1.29287e-15 0 0 3.96328e-20 0 0)
(-1.08656e-17 0 0 1.29001e-15 0 0 0 0 0)
(1.50076e-17 0 0 -1.28735e-15 0 0 -1.54005e-20 0 0)
(1.78806e-17 0 0 1.28489e-15 0 0 -1.97628e-20 0 0)
(9.00278e-18 0 0 -1.28262e-15 0 0 1.75358e-20 0 0)
(-1.00823e-17 0 0 0 0 0 0 0 0)
(1.97441e-17 0 0 0 0 0 -2.18511e-21 0 0)
(-1.16119e-17 0 0 0 0 0 2.1821e-20 0 0)
(2.82541e-17 0 0 -1.27525e-15 0 0 -3.54149e-21 0 0)
(-4.47048e-18 0 0 0 0 0 1.36058e-21 0 0)
(-5.43678e-19 0 0 -1.27252e-15 0 0 8.97069e-21 0 0)
(-1.49375e-17 0 0 1.27135e-15 0 0 0 0 0)
(-2.32216e-17 0 0 0 0 0 0 0 0)
(4.38924e-17 0 0 0 0 0 -1.08472e-21 0 0)
(7.93678e-18 0 0 0 0 0 1.08405e-21 0 0)
(-3.3781e-17 0 0 1.26797e-15 0 0 -3.79214e-21 0 0)
(-1.11971e-17 0 0 0 0 0 -5.41481e-22 0 0)
(1.16759e-17 0 0 0 0 0 0 0 0)
(-5.122e-17 0 0 0 0 0 0 0 0)
(2.96946e-17 0 0 0 0 0 0 0 0)
(-2.72169e-17 0 0 1.26592e-15 0 0 1.21694e-21 0 0)
(4.69606e-17 0 0 1.26579e-15 0 0 0 0 0)
(-2.73404e-17 0 0 0 0 0 0 0 0)
(5.81848e-18 0 0 1.26579e-15 0 0 1.35201e-22 0 0)
(9.17531e-18 0 0 0 0 0 -1.35215e-22 0 0)
(-3.8369e-17 0 0 1.26614e-15 0 0 0 0 0)
(2.06288e-17 0 0 0 0 0 2.16433e-21 0 0)
(-5.04334e-17 0 0 1.26685e-15 0 0 -4.46535e-21 0 0)
(4.22538e-17 0 0 0 0 0 -5.41468e-22 0 0)
(6.19886e-17 0 0 0 0 0 4.33379e-21 0 0)
(-2.38877e-17 0 0 -1.26864e-15 0 0 5.42023e-22 0 0)
(-6.31472e-18 0 0 0 0 0 -7.59316e-21 0 0)
(6.43554e-18 0 0 -1.27036e-15 0 0 -1.08551e-21 0 0)
(4.36491e-17 0 0 0 0 0 1.62956e-21 0 0)
(-2.26012e-17 0 0 0 0 0 0 0 0)
(-1.77257e-17 0 0 0 0 0 0 0 0)
(1.05071e-17 0 0 0 0 0 2.17925e-21 0 0)
(-1.97933e-17 0 0 -1.27674e-15 0 0 -2.18193e-21 0 0)
(-2.2395e-17 0 0 0 0 0 -2.7311e-22 0 0)
(2.82108e-17 0 0 -1.28035e-15 0 0 2.73512e-22 0 0)
(1.09581e-17 0 0 -1.28241e-15 0 0 0 0 0)
(2.13274e-17 0 0 -1.28466e-15 0 0 0 0 0)
(2.58458e-17 0 0 -1.2871e-15 0 0 1.75971e-20 0 0)
(2.92836e-17 0 0 -1.28974e-15 0 0 0 0 0)
(-6.20885e-17 0 0 0 0 0 -4.41799e-21 0 0)
(4.90288e-17 0 0 -1.29563e-15 0 0 4.42841e-21 0 0)
(3.58338e-17 0 0 0 0 0 0 0 0)
(-2.79809e-17 0 0 0 0 0 -3.47774e-23 0 0)
(-3.66704e-18 0 0 -1.3061e-15 0 0 0 0 0)
(2.44676e-17 0 0 0 0 0 3.49823e-23 0 0)
(2.24603e-17 0 0 -1.31425e-15 0 0 0 0 0)
(-2.44677e-17 0 0 1.31868e-15 0 0 3.60928e-20 0 0)
(-1.77695e-18 0 0 0 0 0 0 0 0)
(-2.64288e-17 0 0 0 0 0 -3.54681e-23 0 0)
(2.39269e-17 0 0 0 0 0 -3.646e-20 0 0)
(-1.07859e-17 0 0 1.33876e-15 0 0 3.66068e-20 0 0)
(1.34567e-17 0 0 0 0 0 -3.67596e-20 0 0)
(-1.36795e-17 0 0 0 0 0 0 0 0)
(6.62172e-18 0 0 1.35613e-15 0 0 0 0 0)
(4.47332e-17 0 0 0 0 0 0 0 0)
(-3.3413e-17 0 0 0 0 0 -3.74225e-20 0 0)
(-7.38539e-18 0 0 1.37503e-15 0 0 -3.75984e-20 0 0)
(3.65958e-17 0 0 1.38153e-15 0 0 5.90255e-22 0 0)
(1.2539e-17 0 0 -1.3881e-15 0 0 1.18612e-21 0 0)
(-3.77943e-17 0 0 0 0 0 -1.19171e-21 0 0)
(-8.03837e-18 0 0 1.40107e-15 0 0 1.4965e-22 0 0)
(6.57954e-17 0 0 0 0 0 -1.87895e-22 0 0)
(-4.65755e-18 0 0 0 0 0 -3.98291e-20 0 0)
(-3.91305e-17 0 0 0 0 0 1.21201e-21 0 0)
(-3.99454e-18 0 0 -1.42275e-15 0 0 -3.90553e-20 0 0)
(1.75778e-17 0 0 0 0 0 0 0 0)
(4.45874e-17 0 0 0 0 0 3.04797e-22 0 0)
(0 0 0 0 0 0 2.80221e-20 0 0)
(-2.16711e-18 0 0 0 0 0 5.84591e-22 0 0)
(1.56213e-17 0 0 1.36138e-15 0 0 1.91942e-20 0 0)
(1.09132e-17 0 0 0 0 0 7.52347e-20 0 0)
(1.57685e-17 0 0 -1.34558e-15 0 0 -4.13924e-20 0 0)
(-1.3045e-18 0 0 0 0 0 2.28287e-21 0 0)
(3.49533e-17 0 0 -1.32564e-15 0 0 0 0 0)
(-8.02737e-17 0 0 0 0 0 0 0 0)
(5.79756e-17 0 0 0 0 0 -1.11492e-19 0 0)
(7.58431e-18 0 0 -1.29439e-15 0 0 4.42418e-21 0 0)
(1.88102e-18 0 0 0 0 0 1.31672e-19 0 0)
(-2.48831e-17 0 0 1.27401e-15 0 0 1.39345e-19 0 0)
(-2.46906e-18 0 0 -1.26416e-15 0 0 0 0 0)
(2.02154e-17 0 0 0 0 0 1.45796e-19 0 0)
(-3.22274e-17 0 0 1.24532e-15 0 0 -1.78771e-19 0 0)
(2.59592e-17 0 0 -1.23638e-15 0 0 8.45185e-21 0 0)
(-1.91845e-17 0 0 1.22781e-15 0 0 -8.39322e-20 0 0)
(2.97754e-18 0 0 1.2196e-15 0 0 -1.66742e-20 0 0)
(-5.91674e-19 0 0 -1.21175e-15 0 0 0 0 0)
(-2.94007e-18 0 0 0 0 0 -1.23483e-19 0 0)
(3.15643e-17 0 0 0 0 0 1.2275e-19 0 0)
(1.04618e-17 0 0 1.19032e-15 0 0 0 0 0)
(8.38213e-18 0 0 1.1839e-15 0 0 0 0 0)
(-1.5816e-17 0 0 -1.17786e-15 0 0 0 0 0)
(-1.17332e-17 0 0 0 0 0 6.41033e-20 0 0)
(9.2015e-17 0 0 0 0 0 0 0 0)
(-1.44667e-17 0 0 0 0 0 3.97126e-20 0 0)
(4.5205e-18 0 0 0 0 0 -3.95543e-20 0 0)
(9.57036e-18 0 0 -1.15295e-15 0 0 6.30518e-20 0 0)
(-2.97338e-17 0 0 1.14896e-15 0 0 1.57084e-20 0 0)
(1.03455e-17 0 0 0 0 0 1.95725e-20 0 0)
(1.03147e-17 0 0 0 0 0 -1.95143e-20 0 0)
(2.16849e-17 0 0 1.13873e-15 0 0 -6.61666e-20 0 0)
(-5.54619e-18 0 0 0 0 0 7.76466e-21 0 0)
(1.4525e-17 0 0 0 0 0 -1.93667e-20 0 0)
(-4.19648e-17 0 0 1.13084e-15 0 0 -3.86518e-21 0 0)
(7.44004e-18 0 0 0 0 0 1.9289e-21 0 0)
(3.12216e-17 0 0 1.12673e-15 0 0 -5.77669e-21 0 0)
(-5.89128e-17 0 0 -1.12497e-15 0 0 0 0 0)
(-1.20679e-17 0 0 0 0 0 1.53592e-20 0 0)
(5.49237e-17 0 0 0 0 0 1.91754e-21 0 0)
(-2.62008e-17 0 0 0 0 0 -1.91546e-21 0 0)
(1.54461e-17 0 0 -1.11977e-15 0 0 3.82734e-21 0 0)
(2.50626e-17 0 0 0 0 0 0 0 0)
(-1.58667e-17 0 0 0 0 0 -7.64334e-21 0 0)
(2.79647e-18 0 0 0 0 0 4.77446e-22 0 0)
(-4.34291e-17 0 0 1.11702e-15 0 0 -4.77243e-22 0 0)
(1.46878e-17 0 0 -1.11668e-15 0 0 -7.15648e-22 0 0)
(2.93107e-17 0 0 -1.11648e-15 0 0 1.66954e-21 0 0)
(-1.04944e-17 0 0 -1.11641e-15 0 0 1.19245e-22 0 0)
(-6.92515e-18 0 0 0 0 0 -1.96766e-21 0 0)
(2.37694e-17 0 0 0 0 0 0 0 0)
(-4.53369e-18 0 0 0 0 0 4.7723e-22 0 0)
(-5.60637e-17 0 0 -1.11745e-15 0 0 -3.342e-21 0 0)
(4.61308e-17 0 0 -1.11806e-15 0 0 4.77686e-21 0 0)
(2.07591e-17 0 0 0 0 0 1.62522e-20 0 0)
(-3.66308e-17 0 0 0 0 0 -2.87032e-21 0 0)
(1.09448e-18 0 0 0 0 0 -1.91534e-21 0 0)
(1.72567e-17 0 0 0 0 0 9.58707e-21 0 0)
(3.39386e-17 0 0 0 0 0 0 0 0)
(-3.48778e-17 0 0 1.12488e-15 0 0 3.07584e-20 0 0)
(4.18077e-17 0 0 -1.12661e-15 0 0 -3.08057e-20 0 0)
(-3.66444e-17 0 0 0 0 0 -5.78595e-21 0 0)
(3.10549e-17 0 0 0 0 0 -2.70523e-20 0 0)
(-7.9805e-17 0 0 1.13304e-15 0 0 -3.09815e-20 0 0)
(2.09326e-17 0 0 0 0 0 -3.4934e-20 0 0)
(4.05802e-17 0 0 1.13847e-15 0 0 7.7825e-21 0 0)
(-4.20842e-17 0 0 0 0 0 -3.90185e-21 0 0)
(-8.38583e-19 0 0 0 0 0 6.26142e-20 0 0)
(4.20633e-17 0 0 1.14861e-15 0 0 -7.85181e-21 0 0)
(-3.01086e-17 0 0 0 0 0 -1.57578e-20 0 0)
(-1.21446e-17 0 0 0 0 0 7.9081e-21 0 0)
(5.64274e-17 0 0 1.16144e-15 0 0 -7.93953e-21 0 0)
(-1.68008e-17 0 0 0 0 0 1.59465e-20 0 0)
(4.00468e-18 0 0 1.17166e-15 0 0 -8.00937e-21 0 0)
(3.73652e-18 0 0 0 0 0 0 0 0)
(-3.29334e-17 0 0 0 0 0 6.47113e-20 0 0)
(-3.74676e-17 0 0 1.18967e-15 0 0 -1.3012e-19 0 0)
(-1.34364e-17 0 0 0 0 0 9.81443e-20 0 0)
(5.40658e-17 0 0 -1.20355e-15 0 0 1.31638e-19 0 0)
(-1.30093e-17 0 0 0 0 0 -1.65574e-20 0 0)
(5.95182e-19 0 0 0 0 0 4.99953e-20 0 0)
(-1.67778e-17 0 0 0 0 0 -3.35556e-20 0 0)
(9.05107e-18 0 0 0 0 0 1.68953e-19 0 0)
(-9.11655e-18 0 0 0 0 0 1.44649e-19 0 0)
(2.87778e-17 0 0 0 0 0 -1.45726e-19 0 0)
(3.08483e-18 0 0 -1.26355e-15 0 0 0 0 0)
(1.18137e-17 0 0 -1.27339e-15 0 0 2.61145e-20 0 0)
(-2.50673e-17 0 0 0 0 0 4.38678e-20 0 0)
(-4.92698e-17 0 0 -2.5873e-15 0 0 -1.37071e-19 0 0)
(6.81267e-17 0 0 0 0 0 -1.47077e-19 0 0)
(-4.043e-17 0 0 0 0 0 1.12305e-21 0 0)
(5.82057e-18 0 0 0 0 0 -1.45999e-19 0 0)
(3.25795e-18 0 0 0 0 0 0 0 0)
(9.84253e-18 0 0 0 0 0 3.9042e-20 0 0)
(-1.2546e-17 0 0 0 0 0 -2.31111e-21 0 0)
(2.52225e-17 0 0 1.35936e-15 0 0 3.65892e-20 0 0)
(-3.82994e-18 0 0 0 0 0 5.82817e-22 0 0)
(4.26819e-17 0 0 -1.36582e-15 0 0 5.83542e-22 0 0)
(0 0 0 1.30843e-15 0 0 -1.78887e-20 0 0)
(-4.94736e-17 0 0 0 0 0 0 0 0)
(1.71678e-17 0 0 -1.30221e-15 0 0 -1.42429e-19 0 0)
(5.05415e-18 0 0 0 0 0 -7.29693e-20 0 0)
(-1.00226e-17 0 0 1.28289e-15 0 0 0 0 0)
(6.20586e-17 0 0 0 0 0 2.80195e-19 0 0)
(-2.94986e-17 0 0 1.25861e-15 0 0 0 0 0)
(1.70349e-17 0 0 -2.49196e-15 0 0 0 0 0)
(1.56585e-17 0 0 0 0 0 4.04711e-19 0 0)
(-3.69614e-17 0 0 1.22092e-15 0 0 8.34613e-21 0 0)
(5.90124e-17 0 0 0 0 0 1.15664e-19 0 0)
(7.01044e-18 0 0 0 0 0 -1.30861e-19 0 0)
(-4.16468e-17 0 0 1.18462e-15 0 0 2.67233e-19 0 0)
(2.40589e-17 0 0 -1.17316e-15 0 0 -1.28314e-19 0 0)
(-4.19904e-17 0 0 0 0 0 1.27106e-19 0 0)
(1.68677e-17 0 0 1.1515e-15 0 0 -2.51891e-19 0 0)
(-7.80217e-18 0 0 0 0 0 1.24835e-19 0 0)
(2.98382e-17 0 0 -1.13164e-15 0 0 -2.63018e-19 0 0)
(-5.80914e-17 0 0 1.12237e-15 0 0 1.53449e-20 0 0)
(7.61207e-18 0 0 -1.11354e-15 0 0 1.37017e-19 0 0)
(5.39614e-19 0 0 0 0 0 -1.51092e-19 0 0)
(-6.4286e-18 0 0 -1.09715e-15 0 0 1.50001e-20 0 0)
(5.5864e-17 0 0 0 0 0 -1.48971e-20 0 0)
(-9.51446e-18 0 0 0 0 0 1.48003e-20 0 0)
(6.30409e-18 0 0 1.0759e-15 0 0 -4.41286e-20 0 0)
(8.35693e-18 0 0 1.06969e-15 0 0 -1.46246e-20 0 0)
(3.99996e-17 0 0 -1.06389e-15 0 0 -6.54539e-20 0 0)
(-6.92564e-17 0 0 1.05849e-15 0 0 1.15772e-19 0 0)
(4.93812e-17 0 0 0 0 0 -5.76115e-20 0 0)
(-5.01875e-17 0 0 -1.04882e-15 0 0 -1.07545e-19 0 0)
(-4.84518e-17 0 0 0 0 0 1.21385e-19 0 0)
(6.50348e-17 0 0 0 0 0 -7.11318e-21 0 0)
(-5.77188e-17 0 0 -1.03691e-15 0 0 5.67062e-20 0 0)
(2.97758e-17 0 0 1.03357e-15 0 0 0 0 0)
(2.18885e-17 0 0 0 0 0 5.63567e-20 0 0)
(5.64556e-17 0 0 0 0 0 3.51279e-21 0 0)
(-1.52682e-17 0 0 1.02522e-15 0 0 0 0 0)
(-8.39136e-17 0 0 0 0 0 4.89496e-20 0 0)
(3.36478e-17 0 0 0 0 0 5.93198e-20 0 0)
(4.65247e-17 0 0 1.01907e-15 0 0 -4.17976e-20 0 0)
(-6.6322e-17 0 0 -1.01743e-15 0 0 -1.73878e-21 0 0)
(6.84611e-17 0 0 1.016e-15 0 0 1.73633e-21 0 0)
(-7.30849e-18 0 0 1.01476e-15 0 0 0 0 0)
(-4.13304e-17 0 0 0 0 0 0 0 0)
(-2.83744e-17 0 0 1.01282e-15 0 0 6.9236e-21 0 0)
(5.98592e-17 0 0 1.01211e-15 0 0 0 0 0)
(-4.09339e-17 0 0 1.01156e-15 0 0 -1.38299e-20 0 0)
(-9.78204e-18 0 0 0 0 0 0 0 0)
(3.79157e-17 0 0 -1.01092e-15 0 0 -1.72765e-21 0 0)
(-5.25632e-18 0 0 1.01084e-15 0 0 -5.39845e-23 0 0)
(-3.30717e-17 0 0 -1.01091e-15 0 0 2.15953e-21 0 0)
(-1.62927e-17 0 0 0 0 0 -1.29601e-21 0 0)
(3.23506e-17 0 0 1.01151e-15 0 0 8.64329e-22 0 0)
(-2.21757e-17 0 0 0 0 0 0 0 0)
(2.73834e-17 0 0 1.01275e-15 0 0 1.73078e-21 0 0)
(-2.77162e-17 0 0 0 0 0 -1.73226e-20 0 0)
(5.97005e-17 0 0 1.01466e-15 0 0 1.73404e-21 0 0)
(2.7406e-17 0 0 0 0 0 0 0 0)
(-1.88755e-17 0 0 0 0 0 2.43394e-20 0 0)
(5.3482e-17 0 0 0 0 0 2.78604e-20 0 0)
(-3.48874e-17 0 0 0 0 0 -2.44212e-20 0 0)
(1.49816e-18 0 0 0 0 0 2.44699e-20 0 0)
(3.7537e-17 0 0 -1.02501e-15 0 0 -5.60552e-20 0 0)
(2.10721e-17 0 0 0 0 0 3.16081e-20 0 0)
(2.31408e-17 0 0 0 0 0 2.81714e-20 0 0)
(2.82542e-17 0 0 -1.0333e-15 0 0 2.11906e-20 0 0)
(1.44254e-17 0 0 0 0 0 7.08619e-21 0 0)
(-7.11089e-18 0 0 0 0 0 -7.11089e-21 0 0)
(2.60019e-17 0 0 -1.04415e-15 0 0 7.13778e-20 0 0)
(-2.55963e-17 0 0 0 0 0 -1.21838e-19 0 0)
(4.62764e-18 0 0 0 0 0 -7.19855e-21 0 0)
(3.87464e-17 0 0 1.05803e-15 0 0 7.23266e-21 0 0)
(-2.07697e-17 0 0 -1.06341e-15 0 0 -1.45388e-20 0 0)
(-3.08017e-17 0 0 0 0 0 1.46177e-20 0 0)
(-4.72575e-18 0 0 0 0 0 -1.47023e-20 0 0)
(-5.81141e-18 0 0 0 0 0 1.47927e-20 0 0)
(-5.10482e-17 0 0 0 0 0 -1.93558e-19 0 0)
(4.81873e-18 0 0 0 0 0 2.39866e-19 0 0)
(3.82903e-17 0 0 0 0 0 -3.47309e-19 0 0)
(-3.26038e-18 0 0 0 0 0 -1.21721e-19 0 0)
(-3.61491e-17 0 0 0 0 0 -2.45376e-19 0 0)
(1.65676e-17 0 0 -1.13101e-15 0 0 -2.47409e-19 0 0)
(-3.56484e-17 0 0 0 0 0 2.49539e-19 0 0)
(2.58507e-17 0 0 1.15092e-15 0 0 -1.25882e-19 0 0)
(1.58801e-17 0 0 0 0 0 1.27041e-19 0 0)
(-6.64131e-17 0 0 0 0 0 1.28246e-19 0 0)
(2.19679e-17 0 0 -1.18395e-15 0 0 -2.5899e-19 0 0)
(6.88944e-17 0 0 1.19573e-15 0 0 -2.61565e-19 0 0)
(-1.17947e-17 0 0 0 0 0 -8.25626e-21 0 0)
(-4.88482e-17 0 0 1.22001e-15 0 0 1.50119e-19 0 0)
(1.32387e-17 0 0 0 0 0 1.26369e-19 0 0)
(-1.58037e-17 0 0 1.24485e-15 0 0 0 0 0)
(2.70104e-17 0 0 0 0 0 4.12254e-19 0 0)
(-9.91662e-18 0 0 0 0 0 -1.8981e-21 0 0)
(3.00187e-17 0 0 0 0 0 2.18886e-21 0 0)
(-3.84598e-17 0 0 0 0 0 2.20671e-21 0 0)
(-7.61636e-18 0 0 -1.29986e-15 0 0 -2.22144e-21 0 0)
(3.57017e-17 0 0 0 0 0 2.72382e-25 0 0)
(0 0 0 1.30769e-15 0 0 -2.79625e-22 0 0)
(-3.9158e-17 0 0 -1.25306e-15 0 0 -2.09127e-24 0 0)
(-3.85105e-17 0 0 1.2519e-15 0 0 1.07182e-21 0 0)
(6.08481e-17 0 0 1.24617e-15 0 0 -1.06484e-21 0 0)
(-1.81194e-17 0 0 0 0 0 0 0 0)
(3.34928e-17 0 0 0 0 0 -2.67942e-19 0 0)
(-5.56177e-17 0 0 1.21176e-15 0 0 -2.65072e-19 0 0)
(7.02083e-18 0 0 0 0 0 0 0 0)
(3.47005e-18 0 0 1.18444e-15 0 0 0 0 0)
(2.97264e-17 0 0 0 0 0 -2.56105e-19 0 0)
(-9.04059e-18 0 0 0 0 0 -2.61047e-19 0 0)
(1.00528e-17 0 0 0 0 0 -2.42385e-19 0 0)
(1.43538e-17 0 0 -1.13064e-15 0 0 0 0 0)
(-4.80312e-17 0 0 0 0 0 -4.89045e-19 0 0)
(6.4771e-18 0 0 0 0 0 0 0 0)
(2.56293e-17 0 0 1.09352e-15 0 0 -2.39207e-19 0 0)
(1.37377e-17 0 0 1.08211e-15 0 0 2.36711e-19 0 0)
(-5.75355e-17 0 0 -1.07121e-15 0 0 2.05036e-19 0 0)
(3.83298e-17 0 0 0 0 0 2.61057e-19 0 0)
(-2.66823e-17 0 0 0 0 0 2.29879e-19 0 0)
(1.42381e-17 0 0 1.04142e-15 0 0 0 0 0)
(-3.02465e-17 0 0 0 0 0 2.2584e-19 0 0)
(5.89921e-17 0 0 0 0 0 0 0 0)
(-3.17435e-17 0 0 -1.01579e-15 0 0 -2.22205e-19 0 0)
(2.16609e-17 0 0 0 0 0 -2.20547e-19 0 0)
(-7.82123e-18 0 0 0 0 0 1.36872e-20 0 0)
(1.65099e-17 0 0 -9.9448e-16 0 0 0 0 0)
(-4.24655e-17 0 0 9.88287e-16 0 0 -1.35117e-20 0 0)
(-5.37319e-17 0 0 -9.82526e-16 0 0 1.07464e-19 0 0)
(-1.24056e-17 0 0 -9.77178e-16 0 0 1.33599e-20 0 0)
(-1.42416e-18 0 0 9.72225e-16 0 0 9.3045e-20 0 0)
(3.26015e-17 0 0 -9.67651e-16 0 0 -1.12452e-19 0 0)
(3.90455e-17 0 0 9.63436e-16 0 0 6.58599e-21 0 0)
(-2.34268e-17 0 0 9.59562e-16 0 0 6.55951e-21 0 0)
(9.80286e-18 0 0 -9.56012e-16 0 0 -6.53524e-21 0 0)
(6.04785e-17 0 0 -9.5277e-16 0 0 -5.21046e-20 0 0)
(-2.59716e-17 0 0 -9.49819e-16 0 0 -1.03886e-19 0 0)
(2.91358e-17 0 0 0 0 0 0 0 0)
(-1.1071e-17 0 0 0 0 0 -5.48939e-20 0 0)
(-1.01942e-16 0 0 -9.42557e-16 0 0 -4.83245e-20 0 0)
(-8.03748e-18 0 0 -9.40615e-16 0 0 2.2505e-20 0 0)
(3.39247e-17 0 0 0 0 0 3.2091e-21 0 0)
(-4.23375e-17 0 0 0 0 0 -3.20392e-21 0 0)
(-6.85594e-19 0 0 -1.87213e-15 0 0 3.19944e-21 0 0)
(6.0146e-17 0 0 0 0 0 0 0 0)
(1.93825e-18 0 0 0 0 0 0 0 0)
(-3.14426e-17 0 0 -9.33252e-16 0 0 0 0 0)
(1.45729e-17 0 0 -9.32665e-16 0 0 1.27513e-20 0 0)
(-9.10398e-18 0 0 0 0 0 0 0 0)
(-2.97221e-17 0 0 0 0 0 -6.57015e-21 0 0)
(-1.96632e-17 0 0 0 0 0 1.99076e-22 0 0)
(6.9597e-17 0 0 0 0 0 -3.98185e-22 0 0)
(-5.17203e-17 0 0 0 0 0 -3.98286e-22 0 0)
(1.2523e-18 0 0 9.32619e-16 0 0 -7.96916e-22 0 0)
(-1.02523e-17 0 0 0 0 0 1.59481e-21 0 0)
(-2.34851e-17 0 0 -9.33933e-16 0 0 2.55372e-20 0 0)
(-1.56341e-17 0 0 9.34853e-16 0 0 0 0 0)
(9.3687e-18 0 0 0 0 0 3.19907e-21 0 0)
(2.28821e-18 0 0 0 0 0 0 0 0)
(-6.87555e-19 0 0 0 0 0 -2.88773e-20 0 0)
(-2.66336e-17 0 0 0 0 0 -2.57152e-20 0 0)
(4.6704e-17 0 0 0 0 0 3.22097e-21 0 0)
(-2.1676e-17 0 0 9.44519e-16 0 0 3.22834e-21 0 0)
(2.49676e-17 0 0 9.4692e-16 0 0 4.53116e-20 0 0)
(4.54387e-17 0 0 -9.49577e-16 0 0 -6.49125e-21 0 0)
(-6.92983e-17 0 0 -9.52503e-16 0 0 6.51125e-21 0 0)
(5.73991e-17 0 0 9.55718e-16 0 0 6.53323e-21 0 0)
(6.65096e-17 0 0 9.59237e-16 0 0 -1.18031e-19 0 0)
(6.58355e-18 0 0 9.63079e-16 0 0 6.58355e-21 0 0)
(-2.03087e-17 0 0 0 0 0 -1.05794e-19 0 0)
(-1.89806e-17 0 0 0 0 0 9.30049e-20 0 0)
(1.90767e-18 0 0 0 0 0 0 0 0)
(-3.3566e-17 0 0 -9.82045e-16 0 0 1.34264e-20 0 0)
(1.25401e-17 0 0 0 0 0 0 0 0)
(-8.63873e-17 0 0 0 0 0 2.31013e-19 0 0)
(3.32213e-17 0 0 0 0 0 -1.36793e-20 0 0)
(-3.34558e-17 0 0 0 0 0 0 0 0)
(3.86631e-17 0 0 -1.01515e-15 0 0 1.11032e-19 0 0)
(3.49721e-17 0 0 1.02318e-15 0 0 -1.11911e-19 0 0)
(-3.22409e-17 0 0 0 0 0 2.25687e-19 0 0)
(-4.16685e-17 0 0 -1.0407e-15 0 0 0 0 0)
(6.05074e-17 0 0 1.05016e-15 0 0 2.58439e-19 0 0)
(4.45168e-17 0 0 1.06012e-15 0 0 2.31901e-19 0 0)
(-2.09093e-17 0 0 0 0 0 -2.63457e-19 0 0)
(-1.05612e-17 0 0 -1.08147e-15 0 0 0 0 0)
(6.29678e-17 0 0 1.09287e-15 0 0 -2.54006e-19 0 0)
(-4.85484e-17 0 0 0 0 0 -2.26559e-19 0 0)
(3.16364e-17 0 0 0 0 0 2.59637e-19 0 0)
(-4.85485e-17 0 0 -1.12986e-15 0 0 4.78865e-19 0 0)
(5.2459e-17 0 0 0 0 0 -2.42204e-19 0 0)
(-4.51655e-17 0 0 1.15624e-15 0 0 -7.90397e-21 0 0)
(-1.9419e-17 0 0 0 0 0 2.55874e-19 0 0)
(2.42662e-17 0 0 0 0 0 -2.60861e-19 0 0)
(-3.03868e-17 0 0 0 0 0 -2.59749e-19 0 0)
(-8.27199e-18 0 0 0 0 0 0 0 0)
(-1.43288e-17 0 0 0 0 0 -2.63292e-19 0 0)
(-1.08483e-17 0 0 0 0 0 -2.10939e-21 0 0)
(9.7172e-18 0 0 1.2438e-15 0 0 -2.12564e-21 0 0)
(-3.66253e-18 0 0 0 0 0 -2.608e-25 0 0)
(0 0 0 0 0 0 -2.67257e-22 0 0)
(7.50158e-17 0 0 0 0 0 2.00314e-24 0 0)
(-4.0397e-17 0 0 -1.19903e-15 0 0 -2.0011e-24 0 0)
(-4.66001e-18 0 0 -1.19296e-15 0 0 1.32519e-19 0 0)
(1.04e-17 0 0 0 0 0 2.56821e-19 0 0)
(-1.82919e-17 0 0 -1.17068e-15 0 0 -2.56087e-19 0 0)
(-3.84156e-17 0 0 0 0 0 5.06182e-19 0 0)
(5.35739e-17 0 0 -1.14291e-15 0 0 0 0 0)
(-3.52697e-17 0 0 0 0 0 -4.93776e-19 0 0)
(-2.17676e-17 0 0 -1.1145e-15 0 0 -4.95214e-19 0 0)
(2.14941e-18 0 0 1.1005e-15 0 0 2.48257e-19 0 0)
(0 0 0 -1.08666e-15 0 0 4.75413e-19 0 0)
(-1.04793e-17 0 0 1.07308e-15 0 0 4.84143e-19 0 0)
(1.86302e-17 0 0 -1.05985e-15 0 0 6.81036e-19 0 0)
(-2.2496e-17 0 0 0 0 0 0 0 0)
(-1.61695e-17 0 0 -1.03484e-15 0 0 -2.26372e-19 0 0)
(-9.9917e-18 0 0 0 0 0 -2.79768e-20 0 0)
(4.5461e-17 0 0 0 0 0 -1.93703e-19 0 0)
(-7.43202e-17 0 0 1.00137e-15 0 0 2.73811e-20 0 0)
(5.61432e-17 0 0 0 0 0 -2.71036e-19 0 0)
(-6.90155e-17 0 0 -9.81553e-16 0 0 4.56269e-19 0 0)
(9.49562e-18 0 0 0 0 0 -2.12702e-19 0 0)
(9.41016e-18 0 0 9.63601e-16 0 0 2.63485e-20 0 0)
(-6.71725e-17 0 0 0 0 0 1.82859e-19 0 0)
(6.29262e-17 0 0 0 0 0 3.88662e-19 0 0)
(-1.28562e-17 0 0 -9.4034e-16 0 0 2.57124e-20 0 0)
(6.38177e-18 0 0 0 0 0 -2.04217e-19 0 0)
(-2.71653e-18 0 0 0 0 0 1.26771e-20 0 0)
(6.92823e-17 0 0 0 0 0 -2.14145e-19 0 0)
(-5.09831e-17 0 0 9.15908e-16 0 0 2.00355e-19 0 0)
(-2.13482e-17 0 0 9.10857e-16 0 0 1.24531e-20 0 0)
(-1.76991e-18 0 0 -9.06193e-16 0 0 1.8584e-19 0 0)
(-1.76152e-18 0 0 0 0 0 0 0 0)
(-4.91068e-17 0 0 8.97952e-16 0 0 0 0 0)
(-2.92581e-17 0 0 0 0 0 -6.11363e-21 0 0)
(4.65531e-17 0 0 8.91036e-16 0 0 0 0 0)
(-1.69107e-17 0 0 0 0 0 1.94257e-19 0 0)
(2.46398e-17 0 0 0 0 0 6.05189e-21 0 0)
(-3.79347e-17 0 0 8.82844e-16 0 0 -9.6561e-20 0 0)
(-7.73993e-18 0 0 0 0 0 9.63191e-20 0 0)
(1.63031e-17 0 0 0 0 0 0 0 0)
(9.84792e-18 0 0 8.76893e-16 0 0 -4.49579e-20 0 0)
(4.55198e-17 0 0 0 0 0 -2.99191e-21 0 0)
(-3.07269e-17 0 0 0 0 0 -2.98734e-21 0 0)
(2.13103e-18 0 0 8.72868e-16 0 0 2.98344e-21 0 0)
(8.08907e-18 0 0 0 0 0 1.49009e-21 0 0)
(4.50885e-17 0 0 0 0 0 -2.97755e-21 0 0)
(-4.92021e-17 0 0 0 0 0 -2.23163e-20 0 0)
(1.56138e-17 0 0 0 0 0 -7.43512e-22 0 0)
(1.74143e-17 0 0 -8.69864e-16 0 0 7.43292e-22 0 0)
(3.27039e-17 0 0 8.69772e-16 0 0 1.85803e-22 0 0)
(-2.1502e-17 0 0 0 0 0 -1.85819e-22 0 0)
(2.78275e-17 0 0 0 0 0 0 0 0)
(-2.51841e-17 0 0 -8.70498e-16 0 0 -2.38027e-20 0 0)
(-1.39296e-17 0 0 0 0 0 0 0 0)
(-5.64054e-17 0 0 0 0 0 -2.38392e-20 0 0)
(-2.59956e-17 0 0 0 0 0 4.77297e-20 0 0)
(7.10465e-17 0 0 -8.73894e-16 0 0 0 0 0)
(1.68803e-17 0 0 0 0 0 4.7863e-20 0 0)
(-3.89562e-17 0 0 -8.76728e-16 0 0 -2.99663e-21 0 0)
(-3.3886e-17 0 0 0 0 0 3.00256e-21 0 0)
(3.56812e-17 0 0 0 0 0 9.62961e-20 0 0)
(-8.23146e-17 0 0 0 0 0 9.65365e-20 0 0)
(7.30354e-17 0 0 0 0 0 0 0 0)
(-4.94172e-17 0 0 -8.87775e-16 0 0 -6.06877e-21 0 0)
(-3.95795e-17 0 0 8.90757e-16 0 0 1.09605e-19 0 0)
(4.9329e-17 0 0 0 0 0 -6.11155e-21 0 0)
(-7.88924e-18 0 0 0 0 0 3.06804e-19 0 0)
(8.80407e-19 0 0 -9.01537e-16 0 0 -2.46514e-20 0 0)
(1.50377e-17 0 0 9.05801e-16 0 0 -1.8576e-19 0 0)
(-4.97893e-17 0 0 0 0 0 -1.24473e-20 0 0)
(3.75479e-17 0 0 0 0 0 1.2516e-20 0 0)
(-8.09366e-18 0 0 0 0 0 0 0 0)
(-1.53852e-17 0 0 9.2673e-16 0 0 -1.90052e-19 0 0)
(8.20041e-18 0 0 -9.33024e-16 0 0 -2.29611e-19 0 0)
(-2.38615e-17 0 0 0 0 0 1.28485e-20 0 0)
(4.62402e-17 0 0 -9.46999e-16 0 0 0 0 0)
(9.32338e-18 0 0 9.54714e-16 0 0 4.43793e-19 0 0)
(-7.71101e-17 0 0 -9.62936e-16 0 0 -5.26605e-20 0 0)
(-1.89778e-17 0 0 9.71665e-16 0 0 -3.71966e-19 0 0)
(3.83147e-18 0 0 0 0 0 -5.36405e-20 0 0)
(3.48234e-17 0 0 -9.90532e-16 0 0 2.70848e-20 0 0)
(-1.1727e-17 0 0 -1.00071e-15 0 0 2.73631e-20 0 0)
(-4.93834e-17 0 0 0 0 0 -4.7013e-19 0 0)
(-3.79455e-17 0 0 0 0 0 0 0 0)
(7.67575e-17 0 0 0 0 0 4.24186e-19 0 0)
(-9.19694e-17 0 0 -1.04641e-15 0 0 2.71821e-19 0 0)
(7.6538e-17 0 0 0 0 0 -2.89603e-20 0 0)
(1.04716e-17 0 0 0 0 0 -2.19904e-19 0 0)
(2.75692e-17 0 0 0 0 0 2.22674e-19 0 0)
(-6.87214e-17 0 0 -1.09954e-15 0 0 1.50328e-20 0 0)
(3.91454e-17 0 0 0 0 0 -2.43571e-19 0 0)
(-1.76169e-17 0 0 0 0 0 7.39912e-19 0 0)
(4.45901e-17 0 0 1.14151e-15 0 0 0 0 0)
(-2.93358e-17 0 0 0 0 0 0 0 0)
(-1.14125e-17 0 0 1.16864e-15 0 0 2.55639e-19 0 0)
(-2.30628e-18 0 0 -1.18081e-15 0 0 -2.56285e-19 0 0)
(5.81432e-18 0 0 -1.19077e-15 0 0 -2.03501e-21 0 0)
(2.45549e-17 0 0 0 0 0 2.49786e-25 0 0)
(-7.49683e-17 0 0 1.19949e-15 0 0 -2.5649e-22 0 0)
(0 0 0 1.1499e-15 0 0 0 0 0)
(1.90698e-17 0 0 0 0 0 2.52254e-19 0 0)
(2.23136e-18 0 0 1.14246e-15 0 0 -9.76222e-22 0 0)
(-2.43331e-17 0 0 0 0 0 2.47755e-19 0 0)
(6.56133e-18 0 0 0 0 0 9.75998e-19 0 0)
(2.15997e-17 0 0 0 0 0 -4.80053e-19 0 0)
(6.39647e-18 0 0 0 0 0 -4.79468e-19 0 0)
(1.05204e-17 0 0 0 0 0 4.73153e-19 0 0)
(-1.6611e-17 0 0 0 0 0 4.65109e-19 0 0)
(1.02447e-17 0 0 0 0 0 1.43425e-20 0 0)
(1.21308e-17 0 0 0 0 0 -4.67035e-19 0 0)
(1.39661e-17 0 0 0 0 0 -4.46917e-19 0 0)
(9.84608e-18 0 0 0 0 0 -4.68673e-19 0 0)
(-2.13865e-17 0 0 9.95446e-16 0 0 2.72192e-20 0 0)
(-2.49642e-17 0 0 -9.83207e-16 0 0 4.30153e-19 0 0)
(-3.03607e-17 0 0 9.71542e-16 0 0 4.2505e-19 0 0)
(-3.56414e-17 0 0 -9.60441e-16 0 0 4.20193e-19 0 0)
(3.52486e-17 0 0 -9.49857e-16 0 0 -2.59726e-20 0 0)
(-3.30383e-17 0 0 9.39755e-16 0 0 2.56964e-20 0 0)
(-1.09e-17 0 0 0 0 0 -4.32365e-19 0 0)
(5.39623e-18 0 0 0 0 0 -3.77736e-19 0 0)
(4.27604e-17 0 0 9.12221e-16 0 0 0 0 0)
(-4.23737e-17 0 0 -9.03972e-16 0 0 0 0 0)
(2.2756e-17 0 0 0 0 0 -1.96052e-19 0 0)
(-5.72986e-17 0 0 0 0 0 2.43085e-20 0 0)
(6.03089e-17 0 0 0 0 0 1.92989e-19 0 0)
(-1.02648e-17 0 0 -8.75931e-16 0 0 -3.59269e-20 0 0)
(1.18955e-17 0 0 0 0 0 -3.6876e-19 0 0)
(-8.44367e-17 0 0 -8.64631e-16 0 0 -1.77317e-19 0 0)
(7.30323e-17 0 0 -8.59599e-16 0 0 -2.11542e-19 0 0)
(-1.41936e-17 0 0 0 0 0 -3.50664e-19 0 0)
(6.6459e-18 0 0 0 0 0 -1.86085e-19 0 0)
(3.96912e-17 0 0 0 0 0 -1.96802e-19 0 0)
(5.7637e-18 0 0 8.43147e-16 0 0 1.95966e-19 0 0)
(-4.75702e-17 0 0 0 0 0 -1.14825e-20 0 0)
(-3.26902e-18 0 0 0 0 0 -2.68877e-19 0 0)
(2.44382e-18 0 0 8.34157e-16 0 0 -5.70225e-21 0 0)
(2.39603e-17 0 0 -8.31708e-16 0 0 9.09681e-20 0 0)
(1.1746e-17 0 0 0 0 0 -1.75784e-19 0 0)
(3.63665e-18 0 0 0 0 0 8.48551e-20 0 0)
(1.04837e-17 0 0 8.2579e-16 0 0 4.51604e-20 0 0)
(-4.78937e-17 0 0 0 0 0 -8.73355e-20 0 0)
(5.64554e-17 0 0 0 0 0 -5.62545e-21 0 0)
(5.35687e-17 0 0 0 0 0 2.80884e-21 0 0)
(-2.12425e-17 0 0 0 0 0 -4.48897e-20 0 0)
(-5.90629e-17 0 0 0 0 0 4.48478e-20 0 0)
(3.05104e-17 0 0 0 0 0 2.24076e-20 0 0)
(4.46921e-17 0 0 0 0 0 0 0 0)
(-3.56826e-17 0 0 8.188e-16 0 0 1.69667e-20 0 0)
(2.34984e-17 0 0 -8.18708e-16 0 0 -1.74895e-22 0 0)
(-1.53922e-17 0 0 -8.18783e-16 0 0 -1.11943e-20 0 0)
(-4.69898e-17 0 0 0 0 0 0 0 0)
(-3.31093e-17 0 0 8.1943e-16 0 0 0 0 0)
(3.54349e-17 0 0 0 0 0 0 0 0)
(-4.68891e-17 0 0 8.2076e-16 0 0 0 0 0)
(-3.0693e-17 0 0 -8.21691e-16 0 0 -8.98724e-20 0 0)
(3.59576e-17 0 0 8.22807e-16 0 0 -4.49973e-20 0 0)
(2.53512e-17 0 0 0 0 0 -4.50688e-20 0 0)
(-6.85334e-18 0 0 8.25626e-16 0 0 -9.03029e-20 0 0)
(1.05035e-17 0 0 0 0 0 -8.48357e-20 0 0)
(-1.05282e-17 0 0 0 0 0 -1.87078e-19 0 0)
(3.00439e-17 0 0 0 0 0 -8.52598e-20 0 0)
(-3.09463e-17 0 0 -8.33921e-16 0 0 -1.8242e-19 0 0)
(-4.08503e-18 0 0 8.36615e-16 0 0 -1.88729e-19 0 0)
(1.39384e-17 0 0 0 0 0 -2.75488e-19 0 0)
(3.45698e-17 0 0 0 0 0 -1.84372e-19 0 0)
(1.07455e-17 0 0 0 0 0 -1.85154e-19 0 0)
(-4.31801e-17 0 0 0 0 0 1.16254e-20 0 0)
(-8.34534e-19 0 0 -8.54563e-16 0 0 3.62188e-19 0 0)
(7.55137e-18 0 0 0 0 0 1.87945e-19 0 0)
(3.4601e-17 0 0 8.6418e-16 0 0 0 0 0)
(-4.41587e-17 0 0 -8.69588e-16 0 0 3.92333e-19 0 0)
(-3.41961e-17 0 0 0 0 0 5.86463e-19 0 0)
(3.96075e-17 0 0 0 0 0 -2.41089e-20 0 0)
(-3.29692e-17 0 0 8.88434e-16 0 0 -2.42931e-20 0 0)
(-2.62395e-17 0 0 0 0 0 0 0 0)
(8.82174e-18 0 0 9.03346e-16 0 0 -3.70513e-19 0 0)
(-3.38273e-17 0 0 -9.11558e-16 0 0 0 0 0)
(-1.97716e-17 0 0 0 0 0 4.02621e-19 0 0)