/*--------------------------------*- C++ -*----------------------------------*\
  =========                 |
  \\      /  F ield         | OpenFOAM: The Open Source CFD Toolbox
   \\    /   O peration     | Website:  https://openfoam.org
    \\  /    A nd           | Version:  9
     \\/     M anipulation  |
\*---------------------------------------------------------------------------*/
FoamFile
{
    format      ascii;
    class       volVectorField;
    location    "0";
    object      grad(k);
}
// * * * * * * * * * * * * * * * * * * * * * * * * * * * * * * * * * * * * * //

dimensions      [0 1 -2 0 0 0 0];

internalField   nonuniform List<vector> 
14751
(
(0 0 0)
(-1.5045e-22 2.84361e-21 0)
(1.994e-22 2.84347e-21 -2.1326e-29)
(-2.22897e-24 0 2.13252e-29)
(-4.03616e-23 2.84328e-21 -4.26492e-29)
(4.2519e-23 0 7.25019e-28)
(-6.55867e-23 0 0)
(-1.92563e-23 0 -1.06616e-29)
(2.58995e-23 0 0)
(0 0 -1.06616e-29)
(3.16056e-23 0 0)
(-8.2397e-23 2.84321e-21 1.38607e-27)
(8.91939e-23 -5.68689e-21 0)
(-5.31805e-23 0 -4.26546e-29)
(4.89797e-23 2.84379e-21 -1.32236e-27)
(-3.58873e-23 0 -6.82537e-28)
(7.19878e-23 0 4.26596e-29)
(-8.77044e-23 -2.84404e-21 -4.26605e-29)
(7.86336e-23 2.8441e-21 -6.82584e-28)
(-7.25171e-23 2.84409e-21 -6.82582e-28)
(1.0651e-23 0 0)
(4.77099e-23 0 -7.25201e-28)
(-1.96356e-24 0 4.26576e-29)
(-1.08987e-22 -2.84366e-21 -4.26549e-29)
(6.76832e-23 0 4.26508e-29)
(4.54709e-23 0 1.36471e-27)
(-3.64611e-23 0 0)
(-3.92997e-23 2.84287e-21 3.41144e-28)
(4.95393e-23 -5.68567e-21 0)
(-1.05462e-24 0 0)
(3.14851e-23 0 0)
(-1.34021e-23 0 0)
(-7.69659e-24 0 0)
(2.48408e-23 2.84268e-21 2.13201e-29)
(-1.02235e-22 -2.84265e-21 -2.13199e-29)
(-1.7025e-23 0 7.03564e-28)
(1.55128e-23 0 -7.03587e-28)
(-1.58251e-23 0 -6.82289e-28)
(7.87216e-23 0 0)
(6.45975e-23 -2.84316e-21 0)
(-2.83755e-23 2.84346e-21 5.33148e-30)
(1.85391e-23 0 -5.33198e-30)
(-7.63046e-23 0 -5.33237e-30)
(-8.21134e-23 0 5.33259e-30)
(1.28194e-22 2.84408e-21 2.66633e-30)
(1.05511e-24 -2.84411e-21 -2.66636e-30)
(-8.21162e-23 0 -1.33319e-30)
(9.6581e-23 2.84418e-21 -3.39968e-28)
(-1.64354e-22 0 0)
(1.91174e-22 0 3.33309e-31)
(-1.13738e-22 -2.84426e-21 -3.33312e-31)
(1.13738e-22 2.84426e-21 -6.66624e-31)
(-1.91174e-22 2.84423e-21 6.66618e-31)
(1.64354e-22 0 1.33322e-30)
(-9.6581e-23 2.84418e-21 3.42634e-28)
(8.21162e-23 2.84414e-21 -5.33277e-30)
(-1.05511e-24 0 2.66636e-30)
(-1.28194e-22 0 0)
(8.21134e-23 0 0)
(1.90504e-23 2.84393e-21 0)
(-3.75394e-23 0 -1.36499e-27)
(-8.51811e-23 2.84346e-21 -2.71906e-27)
(1.95311e-22 0 -1.06619e-29)
(-7.30174e-23 0 -1.06612e-29)
(3.60181e-23 0 -1.06608e-29)
(2.27325e-23 0 7.24911e-28)
(-1.16695e-22 0 -7.03568e-28)
(5.08537e-23 2.84266e-21 0)
(5.08538e-23 0 2.132e-29)
(-3.79795e-23 0 -2.132e-29)
(5.08541e-23 0 0)
(-8.85703e-23 2.84269e-21 0)
(5.08544e-23 2.84269e-21 0)
(5.08545e-23 0 0)
(-8.8571e-23 2.84271e-21 8.52812e-29)
(2.61597e-23 2.84272e-21 -4.26407e-29)
(-1.33457e-22 0 -8.52818e-29)
(1.65587e-22 0 8.52821e-29)
(-5.0328e-23 2.84274e-21 -8.52823e-29)
(-6.37879e-24 2.84275e-21 -4.26413e-29)
(2.63651e-25 2.84276e-21 8.52829e-29)
(3.85081e-23 -2.84277e-21 0)
(2.63653e-25 -2.84278e-21 0)
(3.34497e-23 2.84281e-21 -4.26422e-29)
(-4.96849e-23 0 4.2643e-29)
(-1.1263e-22 -5.68586e-21 0)
(5.935e-23 -2.84299e-21 0)
(4.17932e-23 0 0)
(1.04447e-23 0 0)
(3.80504e-23 0 -1.3755e-27)
(-5.75624e-23 0 1.06636e-29)
(5.17986e-24 0 0)
(-6.34876e-23 0 1.06638e-29)
(7.59859e-23 0 5.33189e-29)
(-5.08718e-23 0 -3.19913e-29)
(6.82845e-23 0 1.06637e-29)
(-5.85696e-23 -2.8436e-21 3.46564e-28)
(9.33952e-23 -2.84355e-21 -5.35249e-30)
(-8.88586e-23 2.84348e-21 -6.82414e-28)
(8.50677e-23 0 -2.09062e-26)
(-1.1792e-23 0 0)
(9.21732e-23 0 -4.04159e-26)
(-4.89247e-23 0 -1.29986e-27)
(-1.2183e-22 -2.69739e-21 8.02744e-26)
(1.02617e-22 2.68575e-21 1.28916e-27)
(2.34982e-23 0 6.41657e-28)
(-8.77048e-23 5.32206e-21 0)
(1.09274e-22 0 -8.64452e-26)
(-4.50469e-23 -2.63589e-21 5.0609e-27)
(4.22719e-23 2.62342e-21 0)
(-3.82495e-24 0 -1.25336e-27)
(6.53604e-23 0 0)
(-1.89513e-23 0 0)
(-1.53461e-22 0 7.04831e-26)
(1.66897e-22 0 1.04658e-26)
(-1.12883e-22 -2.55453e-21 -7.84753e-26)
(7.98218e-23 0 -1.95407e-26)
(-2.69178e-23 0 2.00741e-26)
(6.16517e-25 0 6.06061e-28)
(-1.10273e-22 0 9.66261e-27)
(7.62257e-23 0 -9.02806e-27)
(-3.90584e-23 0 0)
(4.07645e-23 2.49211e-21 0)
(-6.33967e-23 2.48491e-21 0)
(2.45032e-23 0 -1.18951e-27)
(-1.17074e-22 2.47183e-21 6.64428e-26)
(5.71937e-24 0 8.49274e-26)
(-3.72439e-23 2.4605e-21 0)
(-4.72084e-23 0 -3.3001e-26)
(4.12845e-23 2.45074e-21 -4.23488e-26)
(2.4488e-23 0 3.75768e-26)
(8.19902e-24 0 0)
(1.93504e-24 0 -4.68239e-27)
(-9.36457e-24 0 4.67594e-26)
(3.62239e-23 0 -7.58891e-27)
(-4.09284e-23 2.42961e-21 2.91553e-27)
(-3.81462e-23 0 1.92229e-26)
(2.9009e-23 2.42491e-21 0)
(-8.11152e-23 0 0)
(2.96301e-23 0 -2.3244e-27)
(4.48239e-23 0 2.32296e-27)
(-5.16269e-23 2.41846e-21 -8.12601e-27)
(3.00248e-23 2.41733e-21 -1.16032e-27)
(1.46377e-23 -2.41636e-21 0)
(-1.15368e-23 0 0)
(9.1074e-23 0 0)
(-7.00573e-23 0 2.60772e-27)
(4.9443e-23 0 0)
(-4.7452e-24 0 0)
(-9.31116e-24 0 2.89717e-28)
(3.12615e-23 2.41456e-21 -2.89747e-28)
(-6.9756e-23 -2.41497e-21 0)
(2.15622e-23 2.41555e-21 4.63786e-27)
(-1.1179e-22 0 -9.56861e-27)
(1.14711e-22 -2.41727e-21 -1.16029e-27)
(-1.82296e-23 0 9.28668e-27)
(-6.35065e-24 0 1.16148e-27)
(-4.29312e-23 2.42129e-21 -1.62711e-26)
(5.05042e-23 0 -2.3261e-27)
(-4.98784e-23 0 3.49192e-27)
(-1.31844e-23 -2.42711e-21 0)
(3.45505e-23 2.42951e-21 0)
(2.25644e-23 0 4.66983e-27)
(9.66111e-24 0 -4.67557e-27)
(-7.44165e-24 0 -5.85235e-28)
(2.48917e-23 -2.44207e-21 5.86097e-28)
(-7.59899e-23 0 0)
(1.04688e-24 -2.4503e-21 0)
(-4.24043e-23 0 3.77081e-26)
(4.08395e-23 0 0)
(-5.74817e-23 -2.46539e-21 -9.46712e-27)
(-2.77529e-23 0 9.48945e-27)
(-2.02623e-23 0 0)
(-4.6395e-23 0 -7.45231e-29)
(9.42712e-23 -2.49119e-21 0)
(1.86063e-23 2.49873e-21 7.4962e-29)
(3.05997e-24 0 0)
(1.71936e-23 -2.51518e-21 7.73418e-26)
(-6.06987e-23 -2.52408e-21 0)
(4.36053e-23 -2.53344e-21 -7.60031e-29)
(1.98691e-23 2.54325e-21 -7.81286e-26)
(3.11705e-24 0 7.84432e-26)
(3.25527e-23 -2.56415e-21 -7.87706e-26)
(4.65246e-23 0 0)
(-1.01671e-22 2.58661e-21 0)
(7.23174e-23 2.59835e-21 0)
(3.88754e-23 2.61039e-21 -8.01911e-26)
(-5.12237e-24 0 -8.05679e-26)
(6.17594e-23 0 1.26483e-27)
(7.7566e-24 2.64758e-21 2.54168e-27)
(-4.22131e-23 2.66007e-21 -2.55367e-27)
(-5.02367e-23 0 3.20679e-28)
(1.00265e-22 2.68421e-21 -4.02632e-28)
(2.86249e-23 -2.69534e-21 -8.5348e-26)
(-8.09102e-23 0 2.59716e-27)
(8.64589e-23 0 -8.36899e-26)
(-2.20747e-23 2.71934e-21 0)
(1.70087e-22 0 6.53136e-28)
(-8.14477e-23 0 6.00473e-26)
(9.22072e-24 0 1.2527e-27)
(-2.85273e-23 0 4.11305e-26)
(1.31199e-22 0 1.61217e-25)
(-1.14039e-22 0 -8.8698e-26)
(5.59829e-23 -2.54785e-21 4.89186e-27)
(8.02488e-23 0 0)
(-2.08229e-22 -2.50855e-21 0)
(1.25162e-22 0 -2.3891e-25)
(3.01373e-23 0 9.48038e-27)
(-2.27225e-23 -2.44925e-21 2.82153e-25)
(-4.39012e-23 2.42999e-21 2.98597e-25)
(1.11847e-22 0 0)
(-4.2063e-23 2.39292e-21 3.12419e-25)
(-7.42266e-23 -2.37525e-21 -3.8308e-25)
(4.1453e-23 0 1.81111e-26)
(-1.13205e-22 2.34186e-21 -1.79855e-25)
(1.21535e-22 0 -3.57305e-26)
(-4.62697e-23 -2.31123e-21 0)
(7.85083e-24 0 -2.64606e-25)
(1.19293e-22 0 2.63036e-25)
(6.4297e-23 0 0)
(3.08727e-23 2.25812e-21 0)
(-9.65329e-23 0 0)
(-1.19538e-22 0 1.37364e-25)
(1.85285e-22 -2.22559e-21 0)
(4.32833e-24 0 8.50985e-26)
(-5.65829e-23 0 -8.47593e-26)
(-1.07377e-24 -2.19907e-21 1.35111e-25)
(-5.88528e-23 0 3.36609e-26)
(-5.91972e-23 -2.18443e-21 4.1941e-26)
(7.12508e-23 2.17794e-21 -4.18164e-26)
(6.36317e-24 0 -1.41786e-25)
(-4.49587e-23 0 1.66386e-26)
(2.37466e-23 2.16146e-21 -4.15001e-26)
(-3.87043e-23 0 -8.28253e-27)
(5.5449e-23 -2.15279e-21 4.13335e-27)
(7.26674e-23 2.14907e-21 -1.23786e-26)
(-1.32012e-22 -2.14572e-21 0)
(8.37008e-24 0 3.29125e-26)
(-3.8664e-23 2.14011e-21 4.109e-27)
(1.04384e-24 0 -4.10456e-27)
(-2.99825e-23 -2.13579e-21 8.20145e-27)
(3.28239e-23 -2.13408e-21 0)
(3.42335e-23 0 -1.63786e-26)
(-6.82992e-24 0 1.0231e-27)
(-7.8023e-23 0 -1.02266e-27)
(-9.45743e-24 0 -1.53353e-27)
(1.61478e-22 -2.12952e-21 3.57759e-27)
(-1.61141e-22 -2.12938e-21 2.55526e-28)
(1.85961e-22 0 -4.21642e-27)
(-9.58729e-23 -2.12987e-21 0)
(-4.25214e-23 0 1.02264e-27)
(-6.12068e-23 0 -7.16142e-27)
(7.38002e-23 -2.13253e-21 1.02361e-26)
(2.30535e-23 2.13395e-21 3.48261e-26)
(-5.52685e-23 -2.13566e-21 -6.15069e-27)
(7.63264e-23 0 -4.10431e-27)
(8.93396e-23 -2.13997e-21 2.05437e-26)
(1.07234e-23 -2.14259e-21 0)
(-1.37239e-22 0 6.59108e-26)
(1.63681e-22 0 -6.60122e-26)
(1.04578e-22 2.15251e-21 -1.23985e-26)
(-1.60586e-23 0 -5.79691e-26)
(-6.93809e-23 2.1611e-21 -6.63889e-26)
(-2.0624e-23 2.16604e-21 -7.48585e-26)
(1.55331e-22 0 1.66768e-26)
(-2.7855e-22 2.17737e-21 -8.3611e-27)
(3.99868e-23 0 1.34173e-25)
(8.50431e-23 0 -1.68253e-26)
(4.23998e-23 2.19835e-21 -3.37667e-26)
(-6.51823e-23 0 1.69459e-26)
(9.57283e-23 2.21527e-21 -1.70133e-26)
(-9.9937e-23 0 3.41712e-26)
(1.07482e-22 0 -1.71629e-26)
(-1.85298e-22 0 0)
(8.0448e-23 -2.25695e-21 1.38667e-25)
(-1.44035e-23 0 -2.78829e-25)
(-1.02512e-22 0 2.10309e-25)
(9.63969e-23 0 2.82082e-25)
(-1.2745e-22 2.3099e-21 -3.548e-26)
(7.60597e-23 0 1.07133e-25)
(-1.7372e-22 -2.34065e-21 -7.19048e-26)
(5.17906e-23 0 3.62043e-25)
(-1.62292e-23 2.3741e-21 3.09963e-25)
(5.83928e-24 0 -3.12269e-25)
(1.64748e-23 -2.41003e-21 0)
(1.66031e-23 -4.8576e-21 5.59596e-26)
(-1.1953e-24 2.44798e-21 9.40024e-26)
(-7.3493e-23 -2.46744e-21 -2.93724e-25)
(6.55779e-23 0 -3.15166e-25)
(6.12016e-24 -2.50682e-21 2.40655e-27)
(-2.71379e-23 0 -3.12856e-25)
(1.24281e-24 0 0)
(1.26406e-22 2.56316e-21 8.36615e-26)
(-7.30483e-23 0 -4.95237e-27)
(9.49501e-24 2.59277e-21 7.84054e-26)
(-1.74686e-23 -2.60186e-21 1.24889e-27)
(8.14093e-23 0 1.25045e-27)
(0 2.49563e-21 -3.83329e-26)
(6.08797e-24 -2.49363e-21 0)
(-7.27667e-23 0 -3.05206e-25)
(7.23003e-24 2.46785e-21 -1.56363e-25)
(-1.1231e-22 0 0)
(9.23266e-23 0 6.00417e-25)
(2.1099e-23 2.4006e-21 0)
(-6.73038e-23 -2.37652e-21 0)
(8.27063e-23 0 8.67239e-25)
(-7.95949e-23 2.32872e-21 1.78846e-26)
(-4.50229e-23 0 2.47852e-25)
(1.78285e-22 0 -2.80417e-25)
(-1.30185e-22 0 5.72643e-25)
(1.28925e-22 -2.23762e-21 -2.74958e-25)
(-9.30779e-23 0 2.7237e-25)
(0 2.19632e-21 -5.39766e-25)
(4.25184e-24 0 2.67503e-25)
(1.075e-22 0 -5.6361e-25)
(-1.63065e-22 0 3.28819e-26)
(6.22237e-23 0 2.93608e-25)
(-7.61632e-23 0 -3.23768e-25)
(1.47139e-22 0 3.2143e-26)
(-6.08869e-24 0 -3.19223e-26)
(1.00819e-22 0 3.17149e-26)
(-1.00201e-22 0 -9.45614e-26)
(5.97734e-23 0 -3.13385e-26)
(2.97246e-24 0 -1.40258e-25)
(-2.26732e-23 0 2.48082e-25)
(1.24602e-22 4.01866e-21 -1.23453e-25)
(-2.21731e-22 0 -2.30453e-25)
(-1.03115e-22 0 2.6011e-25)
(1.23075e-22 -1.98471e-21 -1.52425e-26)
(-1.1685e-22 0 1.21513e-25)
(-2.31022e-23 0 0)
(9.93339e-23 0 1.20764e-25)
(-1.09595e-22 1.96026e-21 7.52742e-27)
(1.23171e-22 -1.95546e-21 0)
(-8.76478e-23 0 1.04892e-25)
(-3.04252e-23 0 1.27114e-25)
(5.69447e-23 1.94371e-21 -8.95663e-26)
(-7.5331e-23 -1.9406e-21 -3.72596e-27)
(1.11182e-23 0 3.72071e-27)
(-2.81159e-23 1.93551e-21 0)
(8.61481e-23 0 0)
(-1.49508e-22 3.86362e-21 1.48363e-26)
(8.05923e-23 0 0)
(-2.16679e-23 1.92939e-21 -2.96354e-26)
(8.17528e-23 -1.92864e-21 0)
(-5.00169e-25 -1.92818e-21 -3.70211e-27)
(-8.55342e-24 3.85604e-21 -1.15681e-28)
(1.11595e-22 -1.92815e-21 4.62757e-27)
(-5.41472e-23 0 -2.77716e-27)
(-6.22926e-23 0 1.85213e-27)
(3.18109e-24 0 0)
(-5.15222e-23 1.93167e-21 3.70881e-27)
(-3.61083e-23 0 -3.71199e-26)
(4.96113e-24 1.93531e-21 3.7158e-27)
(-7.68716e-23 0 0)
(-8.02942e-23 0 5.21559e-26)
(1.06753e-22 0 5.97008e-26)
(4.13514e-23 -1.94684e-21 -5.23311e-26)
(-5.90551e-23 1.95072e-21 5.24355e-26)
(-4.39123e-23 0 -1.20118e-25)
(4.40196e-23 -1.95983e-21 6.77316e-26)
(6.38077e-23 0 6.03674e-26)
(5.82211e-23 -1.97086e-21 4.54085e-26)
(-4.15129e-23 -1.97717e-21 1.51847e-26)
(-8.71903e-24 -1.98406e-21 -1.52376e-26)
(5.73742e-23 0 1.52952e-25)
(-7.42079e-23 0 -2.61082e-25)
(5.88434e-23 0 -1.54255e-26)
(-1.52733e-22 2.01804e-21 1.54985e-26)
(7.42782e-23 -2.02829e-21 -3.11545e-26)
(1.09533e-23 -2.03931e-21 3.13237e-26)
(-5.10774e-23 0 -3.1505e-26)
(-8.16214e-23 0 3.16986e-26)
(-8.5196e-23 2.07716e-21 -4.14767e-25)
(-2.04244e-23 0 5.13998e-25)
(1.97497e-22 0 -7.44234e-25)
(-1.80342e-22 2.12264e-21 -2.6083e-25)
(-2.50723e-23 0 -5.25805e-25)
(2.31735e-23 0 -5.30163e-25)
(-1.38113e-22 2.17581e-21 5.34726e-25)
(3.00126e-23 2.1952e-21 -2.69747e-25)
(9.51938e-23 0 2.72231e-25)
(-9.82807e-23 -2.23643e-21 2.74813e-25)
(-9.92378e-23 0 -5.54978e-25)
(1.80404e-22 4.56134e-21 -5.60497e-25)
(-4.49931e-23 -2.30365e-21 -1.7692e-26)
(-2.61332e-22 0 3.21683e-25)
(1.79051e-22 2.35061e-21 2.70791e-25)
(-3.47807e-23 0 0)
(1.40504e-23 0 8.83402e-25)
(-4.25575e-23 0 -4.06736e-27)
(7.15701e-24 0 4.69042e-27)
(-6.37357e-23 -2.46284e-21 4.72866e-27)
(-1.21059e-23 -2.47928e-21 -4.76022e-27)
(3.76957e-23 0 5.83676e-31)
(0 0 -5.99197e-28)
(-1.49376e-22 -2.39002e-21 -4.48128e-30)
(5.36323e-23 2.3878e-21 2.29677e-27)
(-1.16059e-23 0 -2.2818e-27)
(5.2992e-23 0 0)
(-2.28151e-24 -2.33627e-21 -5.74162e-25)
(-9.02829e-23 2.31124e-21 -5.68011e-25)
(1.16057e-22 -2.28543e-21 0)
(-1.67671e-22 2.25914e-21 0)
(1.13397e-22 0 -5.48795e-25)
(3.44871e-23 0 -5.59387e-25)
(4.26095e-23 0 -5.19397e-25)
(-4.21195e-24 0 0)
(3.74778e-23 0 -1.04795e-24)
(-5.76524e-23 0 0)
(9.36943e-23 4.17143e-21 -5.12586e-25)
(-6.44986e-23 -2.06395e-21 5.07237e-25)
(-3.5915e-23 0 4.39362e-25)
(5.9277e-24 -2.02332e-21 5.59408e-25)
(7.43814e-23 0 4.92597e-25)
(-4.84947e-23 1.98634e-21 0)
(1.53842e-22 0 4.83944e-25)
(-2.86064e-23 -1.95286e-21 0)
(-6.81142e-23 0 -4.76153e-25)
(3.5681e-23 -1.92302e-21 -4.72601e-25)
(7.45891e-24 1.90948e-21 2.93296e-26)
(5.37185e-23 0 0)
(5.89065e-23 0 -2.89537e-26)
(-9.51651e-23 0 2.3028e-25)
(-4.0043e-23 -1.86382e-21 2.86283e-26)
(-1.62982e-23 0 1.99382e-25)
(1.37883e-22 0 -2.40968e-25)
(-8.16515e-23 0 1.41128e-26)
(5.63007e-23 1.83022e-21 1.40561e-26)
(-2.40396e-23 0 -1.40041e-26)
(-9.76069e-24 0 -1.11653e-25)
(7.0767e-24 0 -2.22614e-25)
(-3.96944e-23 -1.80653e-21 0)
(1.11741e-22 0 -1.1763e-25)
(-4.82804e-23 0 -1.03552e-25)
(1.79583e-23 -1.79408e-21 4.82249e-26)
(4.63437e-23 -1.79079e-21 6.87663e-27)
(-1.61505e-23 1.7879e-21 -6.86555e-27)
(-1.52561e-23 0 6.85594e-27)
(-2.19861e-23 0 0)
(-3.19675e-23 -3.56296e-21 0)
(4.41098e-23 0 0)
(-9.17472e-23 -1.77892e-21 2.73242e-26)
(7.0109e-23 0 0)
(-4.29111e-23 1.77764e-21 -1.40789e-26)
(-1.23955e-22 0 4.26592e-28)
(3.33627e-23 0 -8.53253e-28)
(-9.34394e-23 0 -8.5347e-28)
(1.07703e-22 0 -1.70768e-27)
(4.01959e-23 0 3.41744e-27)
(-8.28478e-23 0 5.47226e-26)
(-1.95896e-24 0 0)
(-1.02422e-22 -1.78519e-21 6.85514e-27)
(6.11017e-23 0 0)
(7.99958e-23 1.79051e-21 -6.18799e-26)
(-4.16031e-23 0 -5.5104e-26)
(2.4574e-23 1.79742e-21 6.90207e-27)
(-4.39826e-23 -1.80153e-21 6.91786e-27)
(3.9685e-23 0 9.70963e-26)
(8.48988e-23 0 -1.39098e-26)
(-2.0403e-22 0 1.39527e-26)
(1.077e-22 0 1.39998e-26)
(-1.78672e-24 1.8296e-21 -2.52924e-25)
(-6.27856e-24 1.83693e-21 1.41076e-26)
(4.41408e-23 1.84491e-21 -2.26702e-25)
(8.50761e-23 0 1.99296e-25)
(7.27719e-23 0 0)
(-1.31702e-22 0 2.87708e-26)
(1.4719e-23 -1.88403e-21 0)
(4.44325e-23 1.89579e-21 4.95028e-25)
(-1.49093e-23 0 -2.93129e-26)
(3.75364e-23 0 0)
(-2.45813e-23 -1.93625e-21 2.37926e-25)
(6.86098e-23 0 -2.39809e-25)
(7.68684e-24 0 4.83614e-25)
(-6.00919e-23 -1.98497e-21 0)
(3.32534e-23 0 5.53797e-25)
(5.92389e-24 2.02202e-21 4.96932e-25)
(-3.19051e-23 -2.04192e-21 -5.64551e-25)
(-3.62591e-23 0 0)
(7.32823e-23 2.08448e-21 -5.44298e-25)
(-6.58479e-23 0 -4.85484e-25)
(8.73914e-23 2.13068e-21 5.56364e-25)
(2.10452e-23 -2.15503e-21 1.02614e-24)
(-2.98044e-23 0 -5.19009e-25)
(1.24912e-22 2.20535e-21 -1.69371e-26)
(-1.87373e-22 0 5.48302e-25)
(2.4244e-22 -2.2569e-21 -5.58989e-25)
(-2.22916e-23 2.28266e-21 -5.56605e-25)
(-2.70473e-23 -2.30803e-21 0)
(-8.88226e-23 0 -5.64197e-25)
(-2.98877e-23 0 -4.52012e-27)
(1.62173e-23 2.37236e-21 -4.55494e-27)
(-4.65714e-24 2.38446e-21 -5.58857e-31)
(7.46423e-23 0 -5.72693e-28)
(1.43081e-22 0 4.29244e-30)
(-8.48679e-23 0 -4.28806e-30)
(7.33282e-23 -2.2754e-21 2.83969e-25)
(1.76323e-23 2.25694e-21 5.50331e-25)
(-2.61668e-23 0 -5.48758e-25)
(5.60315e-23 0 1.08468e-24)
(1.49018e-22 0 0)
(-1.00907e-22 0 -1.05809e-24)
(-4.56703e-23 -2.12575e-21 -1.06117e-24)
(2.04984e-23 0 5.31979e-25)
(3.2385e-23 0 1.01874e-24)
(-3.99753e-24 0 1.03745e-24)
(0 2.0215e-21 1.45936e-24)
(-2.34042e-23 -1.99715e-21 0)
(4.24061e-23 -1.97381e-21 -4.85084e-25)
(-8.00422e-23 0 -5.99502e-26)
(-1.885e-23 0 -4.15079e-25)
(1.49215e-23 0 5.86738e-26)
(0 1.8906e-21 -5.80792e-25)
(-2.19394e-23 -1.87216e-21 9.77719e-25)
(-3.62229e-24 1.85461e-21 -4.5579e-25)
(6.82042e-23 0 5.6461e-26)
(-1.03209e-22 0 3.9184e-25)
(9.17817e-23 -1.80739e-21 8.32847e-25)
(2.80243e-23 -1.79356e-21 5.50981e-26)
(8.1728e-23 0 -4.37607e-25)
(-2.07255e-23 0 2.71653e-26)
(1.42443e-22 0 -4.58883e-25)
(-8.18885e-23 0 4.29332e-25)
(-1.001e-22 1.73732e-21 2.66853e-26)
(1.68792e-22 0 3.98229e-25)
(-2.0159e-23 0 0)
(2.67611e-23 0 0)
(-8.32916e-23 -1.70581e-21 -1.31006e-26)
(5.80889e-23 1.69952e-21 0)
(-3.47358e-23 -1.69378e-21 4.16264e-25)
(6.51359e-23 1.68859e-21 1.29683e-26)
(-8.71545e-23 0 -2.06916e-25)
(-7.21734e-23 0 2.06398e-25)
(1.71845e-23 0 0)
(5.47169e-23 0 -9.63384e-26)
(6.80719e-23 0 -6.41125e-27)
(-2.19776e-23 0 -6.40144e-27)
(-6.13756e-23 -1.66486e-21 6.39308e-27)
(-3.57296e-23 1.66305e-21 3.19305e-27)
(9.67495e-23 1.66158e-21 -6.38045e-27)
(-9.66832e-23 -1.66044e-21 -4.78206e-26)
(-3.34275e-24 0 -1.59324e-27)
(4.74429e-23 0 1.59277e-27)
(-1.62593e-23 0 3.9815e-28)
(-1.6911e-23 1.6591e-21 -3.98184e-28)
(4.28464e-23 1.65956e-21 0)
(-5.33045e-23 -1.66034e-21 -5.10058e-26)
(3.28559e-23 0 0)
(8.1196e-24 0 -5.10841e-26)
(3.86095e-23 1.66468e-21 1.02278e-25)
(1.62775e-24 0 0)
(9.37368e-24 -1.66933e-21 1.02564e-25)
(-1.33909e-22 -1.67223e-21 -6.42135e-27)
(5.23604e-23 0 6.43405e-27)
(-3.27983e-24 0 2.06349e-25)
(-5.75402e-23 1.68346e-21 2.06864e-25)
(1.23643e-23 0 0)
(1.32289e-23 -1.6933e-21 -1.30045e-26)
(-9.1254e-23 1.69898e-21 2.34868e-25)
(6.49454e-23 0 -1.30962e-26)
(6.85499e-23 -1.71208e-21 6.57437e-25)
(5.03773e-24 0 -5.28244e-26)
(3.54309e-23 0 -3.98057e-25)
(-5.59619e-23 0 -2.66729e-26)
(-6.65014e-23 0 2.68199e-26)
(-8.57636e-24 0 0)
(-4.66066e-23 1.7676e-21 -4.07254e-25)
(1.70313e-22 0 -4.92024e-25)
(-1.1203e-22 0 2.75325e-26)
(6.35012e-23 0 0)
(0 0 9.50985e-25)
(-1.72186e-22 0 -1.12844e-25)
(2.89579e-23 0 -7.97069e-25)
(-3.28857e-23 1.87083e-21 -1.14944e-25)
(1.21771e-22 -1.88929e-21 5.8039e-26)
(-7.45584e-24 -3.81739e-21 5.86351e-26)
(-3.01412e-23 0 -1.00742e-24)
(-2.28553e-23 0 0)
(-1.15582e-23 0 9.0897e-25)
(-1.36436e-22 -1.99586e-21 5.82473e-25)
(-1.97277e-23 0 -6.20579e-26)
(-4.79352e-23 2.04524e-21 -4.71222e-25)
(8.08985e-23 -2.071e-21 4.77158e-25)
(-1.06499e-22 -2.09721e-21 3.22132e-26)
(-9.12559e-23 0 -5.21939e-25)
(-8.40041e-24 2.15051e-21 1.58553e-24)
(1.70098e-23 0 0)
(-2.15206e-23 0 0)
(4.78886e-23 0 5.47799e-25)
(8.79775e-23 0 -5.49182e-25)
(5.32317e-23 0 -4.36074e-27)
(5.46406e-23 -4.56751e-21 5.35255e-31)
(-1.42991e-22 2.28785e-21 -5.49621e-28)
(0 0 0)
(1.86143e-22 0 5.40544e-25)
(-3.61759e-23 2.17907e-21 -2.0919e-27)
(-9.70425e-23 0 5.30903e-25)
(5.0059e-23 0 2.09142e-24)
(2.0599e-23 0 -1.02868e-24)
(2.44006e-23 -2.08218e-21 -1.02743e-24)
(8.82903e-23 2.05476e-21 1.0139e-24)
(-1.50494e-22 0 9.96661e-25)
(8.59766e-23 0 3.0734e-26)
(-6.94129e-23 0 -1.00079e-24)
(6.08876e-23 0 -9.57678e-25)
(6.76076e-23 0 -1.0043e-24)
(-7.41665e-23 1.89866e-21 5.83269e-26)
(7.69174e-23 0 9.21757e-25)
(3.98121e-23 1.85307e-21 9.10821e-25)
(-1.50273e-22 -1.8319e-21 9.00414e-25)
(9.90778e-23 0 -5.56557e-26)
(7.00172e-23 1.79244e-21 5.50638e-26)
(0 -1.77408e-21 -9.26497e-25)
(-5.48933e-23 -1.75659e-21 -8.09435e-25)
(-5.09743e-23 1.73992e-21 0)
(0 0 0)
(-5.34199e-23 0 -4.20111e-25)
(-3.97412e-23 0 5.20896e-26)
(6.57315e-23 0 4.13547e-25)
(-6.52619e-24 0 -7.69861e-26)
(-4.53777e-23 0 -7.90201e-25)
(-1.2884e-23 -1.64915e-21 -3.79965e-25)
(1.18483e-22 -1.63955e-21 -4.53304e-25)
(-9.87334e-23 0 -7.51424e-25)
(6.65492e-23 1.62253e-21 -3.98754e-25)
(5.047e-23 0 -4.21719e-25)
(-4.39735e-23 0 4.19927e-25)
(-1.2202e-22 1.60191e-21 -2.46053e-26)
(1.55879e-24 0 -5.76165e-25)
(9.32244e-24 0 -1.22191e-26)
(-3.25327e-23 0 1.94932e-25)
(2.47212e-23 0 -3.76681e-25)
(2.92868e-23 1.57841e-21 1.81832e-25)
(-1.46125e-23 0 9.67723e-26)
(-5.83411e-23 0 -1.87148e-25)
(-4.67508e-23 -1.5696e-21 -1.20545e-26)
(6.73507e-23 1.56743e-21 6.01895e-27)
(-3.40188e-23 0 -9.61922e-26)
(-8.09578e-23 0 9.61023e-26)
(8.94852e-23 1.56303e-21 4.80164e-26)
(-4.95823e-24 0 0)
(-2.15425e-23 0 3.63572e-26)
(1.02289e-22 -1.56156e-21 -3.74775e-28)
(-5.96696e-23 -1.5617e-21 -2.39878e-26)
(7.22729e-23 0 0)
(-3.66314e-23 -1.56294e-21 0)
(6.83504e-23 0 0)
(-4.89211e-23 0 0)
(6.31339e-23 -1.56725e-21 -1.92584e-25)
(-9.19558e-24 1.56938e-21 -9.64227e-26)
(7.36817e-23 0 -9.6576e-26)
(-1.33024e-22 1.57476e-21 -1.93506e-25)
(1.58729e-22 1.57805e-21 -1.81791e-25)
(-2.0081e-23 0 -4.00882e-25)
(8.20845e-23 0 -1.827e-25)
(-4.50457e-23 0 -3.90901e-25)
(1.86998e-23 1.59572e-21 -4.04418e-25)
(0 0 -5.90332e-25)
(-3.45382e-23 1.6076e-21 -3.95083e-25)
(2.68017e-23 -1.61441e-21 -3.96758e-25)
(4.75151e-24 1.62185e-21 2.49116e-26)
(-4.61607e-23 -1.62995e-21 7.76117e-25)
(8.00172e-23 0 4.0274e-25)
(8.37023e-23 1.64829e-21 0)
(-3.23947e-24 0 8.40715e-25)
(-1.46754e-22 -1.66973e-21 1.25671e-24)
(3.61304e-23 0 -5.1662e-26)
(-4.96451e-23 0 -5.20567e-26)
(-1.00096e-23 0 0)
(6.73045e-24 1.723e-21 -7.93956e-25)
(-6.79163e-24 -1.73866e-21 0)
(3.08547e-23 0 8.62759e-25)
(-1.38497e-23 0 5.44594e-26)
(-3.49834e-23 1.79115e-21 0)
(-1.76803e-23 1.81047e-21 -1.11235e-25)
(5.72098e-23 0 9.56073e-25)
(-4.7021e-23 0 9.67139e-25)
(0 0 -1.8999e-24)
(-7.41167e-24 0 -5.82877e-26)
(6.00529e-23 0 1.00358e-24)
(-1.44499e-22 -1.94693e-21 -9.56954e-25)
(3.85317e-23 0 0)
(2.34277e-23 1.99917e-21 -1.53536e-26)
(-7.12216e-23 -2.02586e-21 0)
(5.61291e-23 2.05272e-21 -9.93189e-25)
(-5.68668e-23 -2.0797e-21 0)
(1.31657e-22 0 1.03539e-24)
(-1.29102e-22 0 -8.1879e-27)
(4.21097e-23 2.15602e-21 5.38141e-25)
(2.54921e-23 2.17533e-21 0)
(5.76894e-23 2.18792e-21 0)
(-1.36992e-22 -2.19187e-21 5.2605e-28)
(-1.31356e-22 -2.1017e-21 -1.29128e-25)
(1.23007e-22 2.09931e-21 0)
(-2.44601e-23 -2.08726e-21 1.02593e-24)
(2.82788e-23 0 -2.03331e-24)
(-1.11788e-22 -2.04412e-21 -1.00473e-24)
(1.10345e-22 0 1.98157e-24)
(2.33293e-23 3.98153e-21 9.80413e-25)
(-1.38069e-22 0 -1.93035e-24)
(9.8363e-23 -1.93699e-21 1.93389e-24)
(-8.20948e-23 0 -1.90751e-24)
(8.09713e-23 -1.88442e-21 -2.89447e-26)
(7.98677e-23 0 8.56507e-26)
(-4.29776e-23 -1.83371e-21 -5.63316e-26)
(0 0 0)
(-8.37508e-23 0 1.81127e-24)
(6.89394e-23 -3.5297e-21 -9.21675e-25)
(-3.40646e-23 0 -8.57263e-25)
(2.69427e-23 1.72433e-21 -5.29714e-26)
(-8.66049e-23 -1.70545e-21 -1.57174e-24)
(-7.25076e-23 1.68745e-21 -5.18384e-26)
(6.5245e-24 0 8.20972e-25)
(-3.23023e-23 0 -8.12915e-25)
(2.55999e-23 0 0)
(3.17162e-23 0 0)
(-2.51607e-23 0 0)
(-4.68045e-23 1.59759e-21 0)
(2.78749e-23 1.58577e-21 0)
(-6.45908e-23 0 8.22416e-25)
(-5.19492e-23 1.56459e-21 -4.80641e-26)
(6.07481e-23 0 3.82194e-25)
(-1.05714e-22 1.54644e-21 4.03807e-25)
(3.60568e-23 0 1.11062e-24)
(1.07653e-22 0 3.76273e-25)
(-1.08667e-22 0 -7.49232e-25)
(1.92735e-23 -1.51816e-21 0)
(-3.84047e-23 1.51255e-21 3.71725e-25)
(-2.50264e-23 0 -3.70476e-25)
(2.93532e-23 0 -3.69348e-25)
(3.51271e-23 0 1.95678e-25)
(-2.92006e-24 0 -1.95196e-25)
(-6.99279e-23 0 -1.1457e-26)
(1.30862e-22 0 1.14349e-26)
(-3.41122e-23 1.48642e-21 1.82651e-25)
(-2.17426e-23 0 -5.69968e-27)
(-7.70939e-23 -2.96504e-21 1.02472e-25)
(9.4014e-24 0 -9.6685e-26)
(-3.97453e-24 -1.47997e-21 0)
(3.61127e-24 0 1.42001e-27)
(-8.44763e-23 0 -2.41323e-26)
(1.09218e-22 0 7.09692e-28)
(-1.74183e-23 1.47866e-21 0)
(-3.7375e-23 -1.47911e-21 2.8399e-27)
(-5.70851e-23 1.47988e-21 4.54618e-26)
(6.86968e-24 -1.48096e-21 -2.84344e-27)
(9.40955e-24 0 -5.69229e-27)
(-1.52179e-23 1.48411e-21 9.68827e-26)
(-4.3541e-24 -1.4862e-21 1.02726e-25)
(-1.59187e-22 0 -1.14328e-26)
(5.75327e-23 -1.49148e-21 1.94728e-25)
(-4.37904e-23 0 1.72191e-25)
(8.7795e-24 -1.49837e-21 5.52358e-25)
(-6.89607e-23 0 0)
(-4.70945e-23 0 3.70366e-25)
(8.12148e-23 -1.51207e-21 3.71607e-25)
(-2.51951e-23 0 7.45947e-25)
(1.04162e-23 0 3.74476e-25)
(-5.97829e-24 0 -3.76121e-25)
(-2.1024e-23 -1.53775e-21 0)
(-4.22656e-23 0 -3.79874e-25)
(-7.28608e-23 0 3.82001e-25)
(5.19211e-23 0 7.20573e-25)
(-3.99619e-23 0 -1.49884e-24)
(-4.3335e-23 0 -1.55795e-24)
(5.92488e-23 0 0)
(-3.77165e-23 0 -8.40408e-25)
(-3.48641e-23 -1.62277e-21 4.98514e-26)
(-3.19771e-24 0 0)
(-6.45566e-24 0 8.1231e-25)
(-2.60784e-23 0 5.12721e-26)
(-3.29333e-23 0 0)
(7.9885e-23 0 -5.23534e-26)
(-1.41351e-22 -1.72314e-21 1.69392e-24)
(1.97446e-22 0 1.65987e-24)
(-1.5846e-22 0 -7.58546e-25)
(-6.97472e-24 0 8.22771e-25)
(6.35773e-23 0 5.55547e-26)
(5.01044e-23 1.83239e-21 -9.56947e-25)
(-1.45103e-23 0 9.12912e-25)
(-2.20655e-23 0 0)
(7.45685e-24 0 1.87658e-24)
(1.96556e-22 1.93533e-21 0)
(-2.29905e-23 -1.96185e-21 0)
(-1.24287e-22 1.98859e-21 0)
(7.87228e-23 0 -9.82824e-25)
(1.5946e-23 0 -7.83778e-27)
(2.01657e-23 0 7.92949e-27)
(1.09913e-22 0 -4.0018e-27)
(-2.66182e-23 0 -5.19309e-25)
(0 0 -9.84566e-31)
(1.25897e-22 0 1.23761e-25)
(-4.32262e-23 0 -4.94465e-25)
(-7.0314e-23 0 -9.83061e-25)
(0 0 1.94776e-24)
(3.82307e-23 0 -7.51645e-27)
(7.5444e-24 0 -1.88749e-24)
(-2.97634e-23 -1.90486e-21 1.86889e-24)
(-2.20115e-23 0 1.86088e-24)
(7.95917e-23 1.85232e-21 -1.83513e-24)
(0 0 0)
(0 3.60201e-21 0)
(-1.17931e-22 -1.7759e-21 -1.69123e-24)
(3.42076e-23 1.75143e-21 -5.38039e-26)
(-9.44973e-23 1.72795e-21 -1.64556e-24)
(9.32741e-23 0 -1.72905e-24)
(-7.23755e-23 0 -1.03488e-25)
(-5.20081e-23 0 1.73829e-24)
(-1.28522e-23 0 -1.61719e-24)
(1.5251e-22 1.62677e-21 1.59918e-24)
(-1.25726e-22 -1.60929e-21 -1.58199e-24)
(9.95361e-23 0 1.56557e-24)
(2.46343e-23 1.5766e-21 7.74928e-25)
(-6.7095e-23 0 -1.58297e-24)
(8.46189e-23 1.54732e-21 0)
(-8.38938e-23 0 4.71263e-26)
(-2.97204e-23 -1.52168e-21 0)
(3.24447e-23 0 0)
(5.56432e-23 0 7.37003e-25)
(4.07283e-23 -1.48949e-21 6.86359e-25)
(1.15648e-23 0 9.09493e-26)
(-2.29969e-23 -1.4718e-21 -4.52138e-26)
(5.43277e-23 0 -7.1958e-25)
(-5.1216e-23 -1.45681e-21 2.23766e-26)
(5.665e-23 0 3.34135e-25)
(2.82078e-24 0 0)
(-1.15215e-22 0 0)
(-5.18081e-23 0 7.26777e-25)
(1.57731e-22 0 3.07368e-25)
(-4.17578e-24 1.42533e-21 -3.39344e-25)
(-2.49916e-23 -1.42174e-21 1.0919e-26)
(-4.29445e-23 0 -1.08945e-26)
(1.06458e-22 0 1.84841e-25)
(-1.50441e-22 0 -1.84523e-25)
(9.02703e-23 1.41125e-21 1.08384e-26)
(4.8177e-23 1.40952e-21 1.73202e-25)
(-2.06268e-24 0 0)
(3.09163e-24 1.40704e-21 -8.37469e-26)
(1.51064e-23 0 -4.59005e-26)
(-2.9173e-23 0 -2.1593e-26)
(2.1341e-24 1.40563e-21 -6.74702e-28)
(1.24412e-23 -1.40577e-21 2.15926e-26)
(-2.98681e-23 0 0)
(4.77455e-23 0 -8.10401e-26)
(-7.18438e-23 0 8.11009e-26)
(3.37203e-23 1.40937e-21 0)
(-6.5455e-23 0 1.84229e-25)
(9.65992e-23 0 1.51937e-25)
(-3.31757e-23 -1.4155e-21 2.1742e-26)
(-3.73953e-23 1.41825e-21 -3.59442e-25)
(-1.6657e-23 0 0)
(-1.39156e-23 0 0)
(7.39593e-23 -1.42895e-21 0)
(1.95971e-23 0 -2.20169e-26)
(-2.1069e-23 0 4.41848e-26)
(-5.63956e-24 0 -3.76986e-25)
(5.09655e-23 0 2.22672e-26)
(-8.53248e-23 0 3.13143e-25)
(-4.57292e-23 0 -6.96781e-25)
(1.72394e-23 -1.47109e-21 -7.23072e-25)
(6.06837e-23 0 -1.45443e-24)
(-1.04672e-22 0 -7.77444e-25)
(-7.60986e-23 -1.49856e-21 7.82607e-25)
(5.89541e-24 0 7.41815e-25)
(-1.18805e-23 0 4.67162e-26)
(-4.79074e-23 0 7.06423e-25)
(-6.03997e-24 0 0)
(6.09509e-24 1.56034e-21 1.53388e-24)
(-8.61542e-23 0 7.2594e-25)
(1.86487e-23 0 -4.88863e-26)
(-6.90963e-23 -1.60806e-21 -1.38319e-24)
(-6.3499e-24 1.62557e-21 -9.98753e-26)
(-2.56865e-23 0 -1.51505e-24)
(-5.84708e-23 0 -1.73715e-24)
(1.97261e-23 0 0)
(-5.32647e-23 1.70447e-21 1.67556e-24)
(-2.02355e-23 0 1.69748e-24)
(9.57124e-23 1.75017e-21 0)
(-4.85232e-23 -1.77456e-21 0)
(3.51487e-23 0 0)
(-4.99044e-23 0 -1.79412e-24)
(-5.06092e-23 0 -1.42145e-26)
(-1.02636e-22 0 -1.83052e-24)
(3.71678e-23 0 -1.8698e-24)
(-2.26092e-23 -1.92932e-21 1.90308e-24)
(6.87258e-23 0 -7.50669e-27)
(-6.18324e-23 0 0)
(6.24284e-23 1.99771e-21 -3.8356e-27)
(9.81356e-24 -2.00982e-21 4.97792e-25)
(0 0 0)
(0 1.93103e-21 0)
(-3.76685e-23 0 0)
(2.995e-23 0 0)
(7.41576e-24 -1.89844e-21 -9.47699e-25)
(3.66217e-23 0 7.20011e-27)
(7.22483e-24 1.84956e-21 7.10229e-27)
(-9.26098e-23 0 -1.79277e-24)
(0 0 0)
(-1.38497e-23 0 -2.72296e-26)
(2.73093e-23 0 2.68462e-26)
(-3.3653e-23 -1.72303e-21 0)
(-6.63539e-23 0 1.61767e-24)
(9.15953e-23 -1.67489e-21 1.69793e-24)
(4.51752e-23 -1.65212e-21 1.6241e-24)
(5.09526e-23 0 1.00177e-25)
(-2.51566e-23 1.61002e-21 -1.68163e-24)
(9.94154e-23 0 -1.46594e-24)
(-3.68479e-23 0 2.89784e-24)
(2.42894e-23 0 1.62367e-24)
(-2.40258e-23 1.53765e-21 3.11761e-24)
(3.566e-23 0 -3.08486e-24)
(-4.70625e-23 -1.506e-21 9.25286e-26)
(6.40809e-23 1.49134e-21 -9.16277e-26)
(-4.61746e-23 -1.47759e-21 -1.40714e-24)
(5.72157e-23 0 -1.43988e-24)
(-6.80959e-23 -1.45271e-21 -4.46273e-26)
(1.68929e-23 -1.44153e-21 0)
(1.6771e-23 0 0)
(1.11053e-23 0 -6.98688e-25)
(1.10356e-23 0 4.33939e-26)
(1.91998e-23 1.40433e-21 0)
(-1.90962e-23 -1.39675e-21 -4.29081e-26)
(-2.44299e-23 0 0)
(-1.08079e-23 0 0)
(-1.07625e-23 0 0)
(-1.87619e-23 0 0)
(5.34178e-24 0 -3.57081e-25)
(-1.73057e-23 0 2.09381e-26)
(5.30963e-24 0 3.13175e-25)
(-6.62004e-24 1.35578e-21 2.08248e-26)
(3.03828e-23 0 0)
(-8.8329e-23 -1.34998e-21 3.31772e-25)
(3.15851e-23 0 1.75946e-25)
(5.78197e-23 -2.69124e-21 -1.03344e-26)
(-4.3967e-23 0 -3.35449e-25)
(-1.77001e-23 2.68518e-21 5.15554e-27)
(-2.98047e-23 -1.34154e-21 7.98484e-26)
(6.48136e-23 0 4.63377e-26)
(-3.12505e-23 1.34034e-21 1.86575e-26)
(-7.91445e-23 1.34017e-21 -6.43284e-28)
(7.90244e-23 1.34031e-21 -2.05871e-26)
(-5.95735e-23 -1.34073e-21 8.23745e-26)
(-2.22702e-23 0 8.24188e-26)
(4.71963e-23 0 -8.24816e-26)
(-5.24923e-24 0 -1.59966e-25)
(1.05113e-23 0 -1.70495e-25)
(-1.31584e-24 0 -1.65572e-25)
(-7.11777e-23 0 3.31712e-25)
(4.09422e-23 0 3.32369e-25)
(-1.45606e-23 0 -3.33119e-25)
(-4.2466e-23 1.35891e-21 0)