# vtk DataFile Version 2.0
track0
ASCII
DATASET POLYDATA
POINTS 12075 float
-0.0205 0.001 1e-05
-0.02052 0.000999985 1e-05
-0.02054 0.000999974 1e-05
-0.02056 0.000999965 1e-05
-0.02058 0.000999959 1e-05
-0.0206 0.000999956 1e-05
-0.0205 0.00367778 1e-05
-0.02052 0.00367778 1e-05
-0.02054 0.00367777 1e-05
-0.02056 0.00367777 1e-05
-0.02058 0.00367777 1e-05
-0.0206 0.00367777 1e-05
-0.0205 0.00635556 1e-05
-0.02052 0.00635555 1e-05
-0.02054 0.00635555 1e-05
-0.02056 0.00635555 1e-05
-0.02058 0.00635555 1e-05
-0.0206 0.00635555 1e-05
-0.0205 0.00903333 1e-05
-0.02052 0.00903333 1e-05
-0.02054 0.00903333 1e-05
-0.02056 0.00903333 1e-05
-0.02058 0.00903333 1e-05
-0.0206 0.00903333 1e-05
-0.0205 0.0117111 1e-05
-0.02052 0.0117111 1e-05
-0.02054 0.0117111 1e-05
-0.02056 0.0117111 1e-05
-0.02058 0.0117111 1e-05
-0.0206 0.0117111 1e-05
-0.0205 0.0143889 1e-05
-0.02052 0.0143889 1e-05
-0.02054 0.0143889 1e-05
-0.02056 0.0143889 1e-05
-0.02058 0.0143889 1e-05
-0.0206 0.0143889 1e-05
-0.0205 0.0170667 1e-05
-0.02052 0.0170667 1e-05
-0.02054 0.0170667 1e-05
-0.02056 0.0170667 1e-05
-0.02058 0.0170667 1e-05
-0.0206 0.0170667 1e-05
-0.0205 0.0197444 1e-05
-0.02052 0.0197444 1e-05
-0.02054 0.0197444 1e-05
-0.02056 0.0197444 1e-05
-0.02058 0.0197444 1e-05
-0.0206 0.0197444 1e-05
-0.0205 0.0224222 1e-05
-0.02052 0.0224222 1e-05
-0.02054 0.0224222 1e-05
-0.02056 0.0224222 1e-05
-0.02058 0.0224222 1e-05
-0.0206 0.0224222 1e-05
-0.0205 0.0251 1e-05
-0.02052 0.0250998 1e-05
-0.02054 0.0250997 1e-05
-0.02056 0.0250995 1e-05
-0.02058 0.0250995 1e-05
-0.0206 0.0250994 1e-05
-0.0205 0.001 1e-05
-0.0202034 0.00100022 1e-05
-0.0199069 0.00100067 1e-05
-0.0196103 0.00100132 1e-05
-0.0193137 0.00100219 1e-05
-0.0190172 0.00100326 1e-05
-0.0187132 0.00100466 1e-05
-0.0184093 0.00100588 1e-05
-0.0181054 0.0010071 1e-05
-0.0178015 0.00100832 1e-05
-0.0174976 0.00100953 1e-05
-0.0172058 0.00101083 1e-05
-0.016914 0.00101193 1e-05
-0.0166222 0.00101303 1e-05
-0.0163305 0.00101413 1e-05
-0.0160387 0.00101523 1e-05
-0.0157586 0.00101636 1e-05
-0.0154784 0.00101745 1e-05
-0.0151983 0.00101856 1e-05
-0.0149182 0.00101972 1e-05
-0.0146381 0.0010209 1e-05
-0.0143747 0.00102209 1e-05
-0.0141113 0.00102327 1e-05
-0.0138479 0.00102449 1e-05
-0.0135846 0.00102574 1e-05
-0.0133621 0.00102682 1e-05
-0.0133484 0.00102689 1e-05
-0.0133346 0.00102695 1e-05
-0.0133209 0.00102702 1e-05
-0.0133072 0.00102709 1e-05
-0.0132934 0.00102716 1e-05
-0.0130353 0.00102845 1e-05
-0.0127771 0.00102975 1e-05
-0.0125189 0.00103107 1e-05
-0.0122607 0.0010324 1e-05
-0.0120025 0.00103376 1e-05
-0.0117547 0.00103506 1e-05
-0.0115068 0.00103638 1e-05
-0.0112589 0.0010377 1e-05
-0.0110111 0.00103903 1e-05
-0.0107632 0.00104036 1e-05
-0.0105252 0.00104163 1e-05
-0.0102873 0.00104291 1e-05
-0.0100493 0.00104419 1e-05
-0.00981133 0.00104547 1e-05
-0.00957337 0.00104675 1e-05
-0.00934491 0.00104797 1e-05
-0.00911645 0.00104919 1e-05
-0.00888799 0.00105041 1e-05
-0.00865954 0.00105163 1e-05
-0.00843108 0.00105285 1e-05
-0.00821175 0.001054 1e-05
-0.00799242 0.00105516 1e-05
-0.00777309 0.00105632 1e-05
-0.00755376 0.00105747 1e-05
-0.00733443 0.00105861 1e-05
-0.00712387 0.0010597 1e-05
-0.0069133 0.0010608 1e-05
-0.00670273 0.00106188 1e-05
-0.00649216 0.00106297 1e-05
-0.0062816 0.00106405 1e-05
-0.00607944 0.00106507 1e-05
-0.00587729 0.0010661 1e-05
-0.00567514 0.00106713 1e-05
-0.00547298 0.00106815 1e-05
-0.00527083 0.00106916 1e-05
-0.00507675 0.00107013 1e-05
-0.00488267 0.00107109 1e-05
-0.0046886 0.00107206 1e-05
-0.00449452 0.00107302 1e-05
-0.00430044 0.00107397 1e-05
-0.00411412 0.00107488 1e-05
-0.0039278 0.00107579 1e-05
-0.00374147 0.0010767 1e-05
-0.00355515 0.00107761 1e-05
-0.00336883 0.00107851 1e-05
-0.00318995 0.00107937 1e-05
-0.00301107 0.00108023 1e-05
-0.00283219 0.00108109 1e-05
-0.00265331 0.00108194 1e-05
-0.00247443 0.0010828 1e-05
-0.0023027 0.00108361 1e-05
-0.00213097 0.00108443 1e-05
-0.00195924 0.00108525 1e-05
-0.0017875 0.00108607 1e-05
-0.00161577 0.00108688 1e-05
-0.0014509 0.00108766 1e-05
-0.00128603 0.00108844 1e-05
-0.00112116 0.00108923 1e-05
-0.000956289 0.00109002 1e-05
-0.000791418 0.00109081 1e-05
-0.000633135 0.00109156 1e-05
-0.000474851 0.00109233 1e-05
-0.000316567 0.00109309 1e-05
-0.000158284 0.00109386 1e-05
0 0.00109462 1e-05
0.000105677 0.00109513 1e-05
0.000211355 0.00109564 1e-05
0.000317032 0.00109615 1e-05
0.00042271 0.00109666 1e-05
0.000528387 0.00109716 1e-05
0.000634886 0.00109767 1e-05
0.000741385 0.00109817 1e-05
0.000847885 0.00109866 1e-05
0.000954384 0.00109916 1e-05
0.00106088 0.00109965 1e-05
0.00116821 0.00110014 1e-05
0.00127554 0.00110062 1e-05
0.00138286 0.0011011 1e-05
0.00149019 0.00110157 1e-05
0.00159752 0.00110203 1e-05
0.00170568 0.00110249 1e-05
0.00181384 0.00110294 1e-05
0.001922 0.00110338 1e-05
0.00203016 0.00110382 1e-05
0.00213833 0.00110424 1e-05
0.00224733 0.00110466 1e-05
0.00235633 0.00110507 1e-05
0.00246533 0.00110548 1e-05
0.00257434 0.00110587 1e-05
0.00268334 0.00110626 1e-05
0.00279319 0.00110663 1e-05
0.00290304 0.00110701 1e-05
0.00301289 0.00110737 1e-05
0.00312274 0.00110773 1e-05
0.00323259 0.00110808 1e-05
0.00334329 0.00110841 1e-05
0.003454 0.00110875 1e-05
0.0035647 0.00110908 1e-05
0.0036754 0.0011094 1e-05
0.00378611 0.00110971 1e-05
0.00389767 0.00111001 1e-05
0.00400924 0.00111031 1e-05
0.0041208 0.0011106 1e-05
0.00423237 0.00111088 1e-05
0.00434393 0.00111116 1e-05
0.00445636 0.00111142 1e-05
0.00456879 0.00111168 1e-05
0.00468123 0.00111193 1e-05
0.00479366 0.00111218 1e-05
0.00490609 0.00111241 1e-05
0.0050194 0.00111264 1e-05
0.0051327 0.00111286 1e-05
0.00524601 0.00111308 1e-05
0.00535932 0.00111328 1e-05
0.00547262 0.00111348 1e-05
0.00558681 0.00111367 1e-05
0.005701 0.00111385 1e-05
0.00581518 0.00111403 1e-05
0.00592937 0.0011142 1e-05
0.00604356 0.00111436 1e-05
0.00615863 0.00111451 1e-05
0.00627371 0.00111466 1e-05
0.00638878 0.0011148 1e-05
0.00650386 0.00111493 1e-05
0.00661893 0.00111505 1e-05
0.0067349 0.00111517 1e-05
0.00685087 0.00111527 1e-05
0.00696684 0.00111537 1e-05
0.00708281 0.00111547 1e-05
0.00719878 0.00111555 1e-05
0.00731483 0.00111563 1e-05
0.00743087 0.0011157 1e-05
0.00754692 0.00111576 1e-05
0.00766297 0.00111581 1e-05
0.00777244 0.00111585 1e-05
0.00777458 0.00111586 1e-05
0.00777672 0.00111586 1e-05
0.00777886 0.00111586 1e-05
0.007781 0.00111586 1e-05
0.00778313 0.00111586 1e-05
0.00790091 0.0011159 1e-05
0.00801869 0.00111593 1e-05
0.00813647 0.00111595 1e-05
0.00825425 0.00111596 1e-05
0.00837203 0.00111597 1e-05
0.00849073 0.00111596 1e-05
0.00860942 0.00111595 1e-05
0.00872812 0.00111593 1e-05
0.00884682 0.00111591 1e-05
0.00896551 0.00111587 1e-05
0.00908513 0.00111582 1e-05
0.00920475 0.00111577 1e-05
0.00932437 0.00111571 1e-05
0.00944398 0.00111564 1e-05
0.0095636 0.00111556 1e-05
0.00968415 0.00111546 1e-05
0.0098047 0.00111537 1e-05
0.00992525 0.00111526 1e-05
0.0100458 0.00111515 1e-05
0.0101663 0.00111503 1e-05
0.0102878 0.00111489 1e-05
0.0104093 0.00111475 1e-05
0.0105308 0.0011146 1e-05
0.0106523 0.00111444 1e-05
0.0107738 0.00111428 1e-05
0.0108962 0.00111409 1e-05
0.0110186 0.0011139 1e-05
0.0111411 0.00111371 1e-05
0.0112635 0.0011135 1e-05
0.0113859 0.00111329 1e-05
0.0115093 0.00111305 1e-05
0.0116327 0.00111282 1e-05
0.0117561 0.00111258 1e-05
0.0118795 0.00111233 1e-05
0.0120028 0.00111207 1e-05
0.0121272 0.00111178 1e-05
0.0122515 0.0011115 1e-05
0.0123759 0.00111121 1e-05
0.0125002 0.00111091 1e-05
0.0126245 0.0011106 1e-05
0.0127498 0.00111027 1e-05
0.0128752 0.00110994 1e-05
0.0130005 0.0011096 1e-05
0.0131258 0.00110925 1e-05
0.0132511 0.00110889 1e-05
0.0133774 0.0011085 1e-05
0.0135036 0.00110812 1e-05
0.0136299 0.00110773 1e-05
0.0137562 0.00110733 1e-05
0.0138825 0.00110692 1e-05
0.0140098 0.00110648 1e-05
0.014137 0.00110605 1e-05
0.0142643 0.00110561 1e-05
0.0143915 0.00110515 1e-05
0.0145188 0.00110469 1e-05
0.0146471 0.0011042 1e-05
0.0147753 0.00110372 1e-05
0.0149036 0.00110322 1e-05
0.0150318 0.00110271 1e-05
0.0151601 0.00110219 1e-05
0.0152893 0.00110166 1e-05
0.0154186 0.00110111 1e-05
0.0155478 0.00110056 1e-05
0.0156771 0.0011 1e-05
0.0158063 0.00109943 1e-05
0.0159366 0.00109884 1e-05
0.0160668 0.00109824 1e-05
0.0161971 0.00109764 1e-05
0.0163274 0.00109702 1e-05
0.0164576 0.00109639 1e-05
0.0165889 0.00109575 1e-05
0.0167201 0.0010951 1e-05
0.0168514 0.00109444 1e-05
0.0169827 0.00109376 1e-05
0.0171139 0.00109308 1e-05
0.0172462 0.00109239 1e-05
0.0173785 0.00109168 1e-05
0.0175108 0.00109096 1e-05
0.0176431 0.00109023 1e-05
0.0177754 0.0010895 1e-05
0.0179087 0.00108875 1e-05
0.018042 0.00108799 1e-05
0.0181753 0.00108721 1e-05
0.0183087 0.00108642 1e-05
0.018442 0.00108563 1e-05
0.0185763 0.00108484 1e-05
0.0187107 0.00108402 1e-05
0.018845 0.00108318 1e-05
0.0189794 0.00108234 1e-05
0.0191137 0.00108149 1e-05
0.0192491 0.00108064 1e-05
0.0193845 0.00107977 1e-05
0.0195199 0.00107887 1e-05
0.0196553 0.00107797 1e-05
0.0197907 0.00107706 1e-05
0.0199272 0.00107616 1e-05
0.0200636 0.00107523 1e-05
0.0202001 0.00107428 1e-05
0.0203365 0.00107331 1e-05
0.020473 0.00107236 1e-05
0.0206105 0.0010714 1e-05
0.020748 0.00107041 1e-05
0.0208855 0.0010694 1e-05
0.021023 0.00106838 1e-05
0.0211606 0.00106737 1e-05
0.0212991 0.00106635 1e-05
0.0214377 0.00106531 1e-05
0.0215763 0.00106424 1e-05
0.0217149 0.00106316 1e-05
0.0218535 0.00106209 1e-05
0.0219931 0.00106102 1e-05
0.0221328 0.00105992 1e-05
0.0222724 0.0010588 1e-05
0.0224121 0.00105766 1e-05
0.0225517 0.00105653 1e-05
0.0226925 0.0010554 1e-05
0.0228332 0.00105424 1e-05
0.022974 0.00105306 1e-05
0.0231147 0.00105186 1e-05
0.0232555 0.00105068 1e-05
0.0233973 0.00104949 1e-05
0.0235391 0.00104827 1e-05
0.023681 0.00104703 1e-05
0.0238228 0.00104577 1e-05
0.0239647 0.00104453 1e-05
0.0241076 0.00104328 1e-05
0.0242505 0.00104201 1e-05
0.0243935 0.0010407 1e-05
0.0245364 0.00103939 1e-05
0.0246794 0.00103808 1e-05
0.0248234 0.00103678 1e-05
0.0249675 0.00103544 1e-05
0.0251115 0.00103408 1e-05
0.0252556 0.0010327 1e-05
[...]
POINT_DATA 12075
 FIELD attributes 1
U 3 12075 float
10.0004 	0.00731845 	0 10.0004 	0.00585476 	0 10.0003 	0.00439107 	0 10.0002 	0.00292738 	0 10.0001 	0.00146369 	0 10 	0 	0
10.0001 	0.00088005 	0 10 	0.00070404 	0 10 	0.00052803 	0 10 	0.00035202 	0 10 	0.00017601 	0 10 	0 	0
10.0001 	0.000467379 	0 10.0001 	0.000373713 	0 10.0001 	0.000280048 	0 10 	0.000186382 	0 10 	9.27159e-05 	0 10 	0 	0
10 	0.000267652 	0 10 	0.000214122 	0 10 	0.000160591 	0 10 	0.000107061 	0 10 	5.35305e-05 	0 10 	0 	0
10 	8.19772e-05 	0 10 	6.55818e-05 	0 10 	4.91863e-05 	0 10 	3.27909e-05 	0 10 	1.63954e-05 	0 10 	0 	0
10 	-2.48046e-05 	0 10 	-1.98437e-05 	0 10 	-1.48828e-05 	0 10 	-9.92186e-06 	0 10 	-4.96093e-06 	0 10 	0 	0
10 	-0.000215124 	0 10 	-0.000172099 	0 10 	-0.000129075 	0 10 	-8.60497e-05 	0 10 	-4.30248e-05 	0 10 	0 	0
10 	-0.000377158 	0 10 	-0.000301727 	0 10 	-0.000226295 	0 10 	-0.000150863 	0 10 	-7.54317e-05 	0 10 	0 	0
9.99999 	-0.000427142 	0 9.99999 	-0.000341713 	0 9.99999 	-0.000256285 	0 10 	-0.000170857 	0 10 	-8.54283e-05 	0 10 	0 	0
9.17387 	0.0870992 	0 9.1308 	0.0696794 	0 9.08741 	0.0522592 	0 9.04368 	0.0348389 	0 8.99962 	0.0174184 	0 8.95524 	0 	0
10.0004 	0.00731845 	0 10.0024 	0.0151691 	0 10.0045 	0.0221884 	0 10.0065 	0.0291633 	0 10.0085 	0.0360944 	0 10.0135 	0.0463099 	0 10.0163 	0.0402094 	0 10.0207 	0.0401682 	0 10.0252 	0.0401271 	0 10.0296 	0.0400862 	0 10.0356 	0.044547 	0 10.0384 	0.0379071 	0 10.0424 	0.0378635 	0 10.0464 	0.0378198 	0 10.0504 	0.0377761 	0 10.0545 	0.0408775 	0 10.0567 	0.0388005 	0 10.0591 	0.0401102 	0 10.0616 	0.0414216 	0 10.064 	0.0427346 	0 10.0661 	0.0451929 	0 10.0677 	0.0453044 	0 10.069 	0.0465066 	0 10.0703 	0.0477101 	0 10.0717 	0.0489146 	0 10.0728 	0.0499329 	0 10.0729 	0.0499962 	0 10.0729 	0.0500595 	0 10.073 	0.0501228 	0 10.0731 	0.0501861 	0 10.0732 	0.0502399 	0 10.0737 	0.0508677 	0 10.0742 	0.0514895 	0 10.0747 	0.0521117 	0 10.0752 	0.0527345 	0 10.0757 	0.0531931 	0 10.0756 	0.0534903 	0 10.0752 	0.053682 	0 10.0749 	0.0538738 	0 10.0745 	0.0540657 	0 10.074 	0.054019 	0 10.0736 	0.0541662 	0 10.0725 	0.0541448 	0 10.0714 	0.0541234 	0 10.0703 	0.054102 	0 10.0687 	0.0538114 	0 10.0683 	0.0538947 	0 10.0667 	0.0537641 	0 10.0651 	0.0536334 	0 10.0634 	0.0535027 	0 10.0609 	0.0530856 	0 10.0609 	0.053144 	0 10.0589 	0.0529535 	0 10.0568 	0.0527629 	0 10.0548 	0.0525722 	0 10.0512 	0.0520829 	0 10.0518 	0.0521419 	0 10.0495 	0.0519269 	0 10.0472 	0.0517119 	0 10.0449 	0.0514969 	0 10.0402 	0.0509753 	0 10.0417 	0.051057 	0 10.0391 	0.0508401 	0 10.0366 	0.0506232 	0 10.0341 	0.0504063 	0 10.0283 	0.0498699 	0 10.0308 	0.0499825 	0 10.0281 	0.0497824 	0 10.0254 	0.0495821 	0 10.0228 	0.0493819 	0 10.0158 	0.0488559 	0 10.0194 	0.049012 	0 10.0167 	0.0488324 	0 10.0139 	0.0486528 	0 10.0112 	0.0484731 	0 10.003 	0.0479509 	0 10.0079 	0.0481567 	0 10.0051 	0.0480465 	0 10.0023 	0.0479362 	0 9.99957 	0.0478259 	0 9.99027 	0.047386 	0 9.99644 	0.0476862 	0 9.99371 	0.0476186 	0 9.99097 	0.047551 	0 9.98823 	0.0474833 	0 9.97773 	0.04703 	0 9.9853 	0.0473763 	0 9.98267 	0.0475152 	0 9.98005 	0.0476542 	0 9.97742 	0.0477931 	0 9.96578 	0.0476153 	0 9.97491 	0.0481133 	1.0283e-21 9.973 	0.0481965 	6.83689e-21 9.97109 	0.0482796 	1.26454e-20 9.96919 	0.0483628 	1.84537e-20 9.95716 	0.04795 	1.56039e-20 9.96764 	0.0482075 	1.08586e-19 9.96602 	0.0479933 	1.00881e-19 9.9644 	0.0477792 	9.31736e-20 9.96277 	0.047565 	8.54633e-20 9.95056 	0.046913 	-1.72616e-20 9.96096 	0.046851 	-4.68922e-20 9.95938 	0.0464928 	-5.21544e-20 9.95779 	0.0461346 	-5.74144e-20 9.9562 	0.0457763 	-6.26723e-20 9.94411 	0.0451375 	-2.4375e-20 9.95406 	0.0448627 	-2.14809e-20 9.95224 	0.0442047 	-1.49259e-20 9.95041 	0.0435467 	-8.37154e-21 9.94858 	0.0428885 	-1.81773e-21 9.93656 	0.0420231 	8.20441e-21 9.94609 	0.0416891 	-6.23107e-21 9.94399 	0.040821 	-2.74571e-20 9.94188 	0.0399527 	-4.86856e-20 9.93977 	0.0390842 	-6.99166e-20 9.92773 	0.0379307 	-1.00064e-19 9.93673 	0.0376992 	-1.42658e-19 9.93424 	0.0368499 	-1.28573e-19 9.93175 	0.0360004 	-1.1448e-19 9.92926 	0.0351507 	-1.00377e-19 9.91713 	0.0338711 	-3.40088e-20 9.92544 	0.0337632 	4.08997e-20 9.92254 	0.0329973 	5.63055e-20 9.91963 	0.0322311 	7.17002e-20 9.91671 	0.0314647 	8.7084e-20 9.90456 	0.0301658 	4.18641e-20 9.9121 	0.0300862 	-5.59228e-20 9.90877 	0.029354 	-6.28866e-20 9.90545 	0.0286215 	-6.98334e-20 9.90212 	0.0278888 	-7.67633e-20 9.89003 	0.0266092 	-3.81452e-22 9.89668 	0.0264876 	7.18824e-20 9.89291 	0.025764 	6.12307e-20 9.88914 	0.0250401 	5.05622e-20 9.88536 	0.024316 	3.98767e-20 9.87341 	0.0230929 	-3.20481e-20 9.87898 	0.0229075 	-9.61823e-20 9.87473 	0.0221912 	-1.21474e-19 9.87047 	0.0214747 	-1.46759e-19 9.86621 	0.0207578 	-1.72038e-19 9.8545 	0.0196168 	-1.54536e-19 9.85877 	0.0193666 	-1.78628e-19 9.85402 	0.0186618 	-1.64477e-19 9.84926 	0.0179568 	-1.50321e-19 9.84449 	0.0172516 	-1.3616e-19 9.83319 	0.0162044 	-9.42146e-20 9.83589 	0.0158979 	-7.94522e-20 9.83064 	0.0152092 	-5.84048e-20 9.82538 	0.0145203 	-3.73596e-20 9.82011 	0.0138311 	-1.63163e-20 9.80945 	0.0128776 	2.59881e-21 9.81028 	0.012507 	0 9.80454 	0.0118283 	0 9.79879 	0.0111492 	0 9.79304 	0.0104699 	0 9.78333 	0.00960436 	0 9.78191 	0.00915492 	-1.83978e-20 9.77569 	0.0084818 	-3.99601e-20 9.76947 	0.00780834 	-6.15245e-20 9.76324 	0.00713455 	-8.30909e-20 9.75484 	0.00636085 	-1.05691e-19 9.75081 	0.00582043 	-1.11934e-19 9.74418 	0.00515793 	-1.12758e-19 9.73753 	0.00449507 	-1.13576e-19 9.73087 	0.00383184 	-1.14388e-19 9.72459 	0.00320585 	-1.15148e-19 9.72446 	0.00319355 	-1.15186e-19 9.72434 	0.00318124 	-1.15225e-19 9.72422 	0.00316894 	-1.15263e-19 9.72409 	0.00315663 	-1.15301e-19 9.72385 	0.00313898 	-1.15301e-19 9.71675 	0.00247829 	-8.23302e-20 9.70953 	0.00181231 	-4.91912e-20 9.7023 	0.00114591 	-1.60635e-20 9.69506 	0.000479087 	1.7053e-20 9.68134 	-0.000476777 	5.7662e-20 9.67963 	-0.000879485 	5.87236e-20 9.67197 	-0.00154199 	6.00028e-20 9.6643 	-0.00220497 	6.12795e-20 9.65662 	-0.0028684 	6.25535e-20 9.63626 	-0.00407303 	6.58809e-20 9.63978 	-0.00425117 	5.20003e-20 9.63171 	-0.00491006 	3.81171e-20 9.62362 	-0.00556944 	2.42324e-20 9.61552 	-0.00622933 	1.03464e-20 9.58888 	-0.00763536 	-1.09179e-21 9.59733 	-0.00763567 	-9.76447e-21 9.58885 	-0.00829229 	-2.30217e-20 9.58037 	-0.00894946 	-3.62776e-20 9.57187 	-0.00960718 	-4.95321e-20 9.53947 	-0.0111607 	-6.28026e-20 9.55241 	-0.0110356 	-6.33061e-20 9.54357 	-0.0116922 	-7.16618e-20 9.53472 	-0.0123493 	-8.00137e-20 9.52586 	-0.013007 	-8.83618e-20 9.48832 	-0.014651 	-1.08963e-19 9.50525 	-0.0144522 	-1.66991e-19 9.49607 	-0.0151084 	-1.56162e-19 9.48689 	-0.0157653 	-1.45349e-19 9.47769 	-0.0164228 	-1.34551e-19 9.43572 	-0.0180961 	-4.70678e-20 9.45604 	-0.0178747 	-3.04345e-20 9.44656 	-0.0185307 	-2.14192e-20 9.43706 	-0.0191874 	-1.2403e-20 9.42755 	-0.0198448 	-3.3858e-21 9.38189 	-0.0214904 	0 9.40503 	-0.0212979 	0 9.39526 	-0.0219555 	0 9.38549 	-0.0226138 	0 9.37569 	-0.0232728 	0 9.3271 	-0.0248381 	0 9.35245 	-0.0247257 	2.08469e-21 9.34243 	-0.0253856 	1.04647e-20 9.3324 	-0.0260462 	1.88438e-20 9.32235 	-0.0267076 	2.72219e-20 9.27156 	-0.0281388 	4.72503e-20 9.29856 	-0.0281546 	1.78095e-19 9.28832 	-0.0288159 	1.81445e-19 9.27806 	-0.0294779 	1.84812e-19 9.26778 	-0.0301407 	1.88197e-19 9.2155 	-0.0313854 	4.74693e-20 9.24361 	-0.0315707 	2.56993e-20 9.23317 	-0.032232 	1.81758e-20 9.22271 	-0.0328941 	1.06512e-20 9.21093 	-0.0335677 	3.85222e-21 9.1591 	-0.0345709 	1.95371e-20 9.18506 	-0.0349792 	1.19069e-19 9.17722 	-0.0356206 	1.2796e-19 9.16659 	-0.0362819 	1.29413e-19 9.15072 	-0.0369545 	1.15278e-19 9.10253 	-0.0376919 	4.44613e-21 9.12516 	-0.0383185 	-1.1329e-19 9.12072 	-0.0389718 	-1.45031e-19 9.10994 	-0.0396321 	-1.56649e-19 9.09069 	-0.0402518 	-1.46291e-19 9.04596 	-0.0407477 	-6.95764e-20 9.06548 	-0.0415698 	-2.02877e-19 9.06389 	-0.0422784 	-2.45532e-19 9.05297 	-0.0429372 	-2.48195e-19 9.03102 	-0.0434594 	-1.9777e-19 8.98954 	-0.0437388 	-5.34222e-20 9.00618 	-0.0447337 	-2.81099e-20 9.00692 	-0.0455345 	-1.25945e-20 8.9959 	-0.0461919 	-4.33187e-21 8.97183 	-0.0465786 	0 8.9334 	-0.0466667 	0 8.94739 	-0.0478119 	0 8.95002 	-0.0487357 	0 8.93891 	-0.0493914 	0 8.91328 	-0.049612 	2.23084e-21 8.87766 	-0.0495335 	5.99518e-21 8.88924 	-0.0508079 	2.40929e-21 8.89335 	-0.0518792 	0 8.88218 	-0.0525332 	0 8.85545 	-0.052564 	2.68278e-21 8.82243 	-0.0523424 	6.45205e-21 8.83183 	-0.0537253 	2.86581e-21 8.83706 	-0.0549625 	1.50057e-21 8.82585 	-0.0556151 	8.97586e-21 8.79845 	-0.0554392 	2.77367e-20 8.7678 	-0.0550972 	4.8759e-20 8.77523 	-0.056571 	1.91691e-19 8.7813 	-0.0579879 	3.2479e-19 8.77006 	-0.0586395 	3.2882e-19 8.74233 	-0.0582455 	1.92283e-19 8.71386 	-0.0578037 	4.93624e-20 8.71952 	-0.0593511 	2.86526e-20 8.72514 	-0.0609 	7.94441e-21 8.71368 	-0.0615094 	2.97622e-22 8.68717 	-0.0609868 	3.91838e-21 8.66068 	-0.0604638 	7.53896e-21 8.66476 	-0.0620656 	4.10662e-21 8.66879 	-0.0636692 	6.75276e-22 8.65773 	-0.0642478 	2.53227e-21 8.63303 	-0.0636652 	-1.89953e-21 8.60834 	-0.0630821 	-6.33022e-21 8.61101 	-0.0647305 	-5.57748e-20 8.61363 	-0.0663806 	-1.05224e-19 8.603 	-0.0669308 	-1.06772e-19 8.57994 	-0.0663015 	-6.15533e-20 8.55689 	-0.0656716 	-1.63327e-20 8.55832 	-0.0673621 	9.63846e-20 8.55969 	-0.0690543 	2.09095e-19 8.54954 	-0.0695762 	2.18786e-19 8.52795 	-0.0689042 	1.24871e-19 8.50638 	-0.0682318 	3.09565e-20 8.50672 	-0.0699479 	1.79819e-20 8.50701 	-0.0716657 	5.00312e-21 8.49736 	-0.0721596 	4.87574e-22 8.47709 	-0.0714616 	5.77882e-21 8.45684 	-0.0707632 	1.1072e-20 8.45623 	-0.0724902 	4.70087e-21 8.45556 	-0.074219 	-1.67647e-21 8.44643 	-0.0746878 	-2.35002e-20 8.42734 	-0.0739839 	-8.0372e-20 8.40828 	-0.0732795 	-1.37247e-19 8.40683 	-0.0750066 	-2.8593e-19 8.40533 	-0.0767355 	-4.34607e-19 8.39672 	-0.0771816 	-4.17123e-19 8.37871 	-0.0764856 	-2.46681e-19 8.36072 	-0.0757891 	-7.62401e-20 8.35853 	-0.0775086 	6.46761e-20 8.35615 	-0.0792 	2.02385e-19 8.34774 	-0.079596 	1.99594e-19 8.33118 	-0.078978 	1.02771e-19 8.31416 	-0.0783001 	4.36225e-22 8.31132 	-0.080009 	-1.01075e-19 8.30754 	-0.0815037 	-1.87547e-19 8.29928 	-0.0819095 	-1.97974e-19 8.28475 	-0.0814758 	-1.30195e-19 8.26861 	-0.0808234 	-4.2059e-20 8.26519 	-0.0825198 	-2.93633e-20 8.26028 	-0.0838207 	-1.67804e-20 8.25214 	-0.0842379 	-4.44272e-21 8.23939 	-0.0839903 	1.49479e-20 8.22404 	-0.0833681 	3.83097e-20 8.22011 	-0.0850513 	1.34931e-20 8.2143 	-0.0861631 	-2.99039e-21 8.20629 	-0.0865934 	-9.54313e-21 8.19507 	-0.0865311 	-4.71832e-21 8.18045 	-0.0859431 	1.22448e-20 8.17607 	-0.087613 	-6.63391e-21 8.16955 	-0.0885418 	-1.84509e-20 8.16165 	-0.0889867 	-2.56556e-20 8.15177 	-0.0891076 	-3.8485e-20 8.13781 	-0.0885564 	-6.29768e-20 8.13302 	-0.0902134 	5.97553e-20 8.12596 	-0.0909665 	9.17117e-20 8.11817 	-0.0914272 	9.42989e-20 8.10944 	-0.0917284 	7.91972e-20 8.09609 	-0.0912162 	-2.58815e-20 8.09094 	-0.0928614 	7.76454e-20 8.08349 	-0.0934462 	9.0257e-20 8.07579 	-0.0939242 	9.36812e-20 8.06807 	-0.0944021 	9.70529e-20 8.05526 	-0.0939305 	1.09183e-20 8.04965 	-0.0954931 	-7.02457e-22 8.04207 	-0.0959894 	-4.80554e-22 8.03446 	-0.0964859 	-2.58677e-22 8.02683 	-0.0969828 	-3.68269e-23 8.0153 	-0.0967071 	1.87566e-20 8.00916 	-0.0980883 	0 8.00166 	-0.0986044 	0 7.99413 	-0.0991208 	0 7.98658 	-0.0996375 	0 7.97617 	-0.0995538 	1.5069e-20 7.96963 	-0.100762 	0 7.9622 	-0.101299 	0 7.95474 	-0.101837 	0 7.94727 	-0.102374 	0 7.93784 	-0.102479 	0 7.931 	-0.103522 	0 7.92364 	-0.104081 	0 7.91625 	-0.104641 	0 7.90884 	-0.105201 	0 7.90026 	-0.105489 	-6.96758e-21 7.89323 	-0.106375 	0 7.88592 	-0.106958 	0 7.87859 	-0.107542 	0 7.87124 	-0.108125 	0 7.8634 	-0.108592 	-6.11221e-21 7.85788 	-0.109192 	0 7.85227 	-0.109661 	0 7.84665 	-0.110132 	0 7.84101 	-0.110602 	0 7.83556 	-0.111056 	0 7.83381 	-0.111197 	0 7.83206 	-0.111339 	0 7.83031 	-0.111481 	0 7.82856 	-0.111622 	0 7.827 	-0.111725 	0 7.81952 	-0.112395 	-1.03368e-20 7.81209 	-0.11303 	-2.11479e-20 7.80463 	-0.113666 	-3.19573e-20 7.79715 	-0.114302 	-4.27648e-20 7.7907 	-0.114734 	-5.35816e-20 7.78293 	-0.115581 	-5.02522e-20 7.77553 	-0.116244 	-4.948e-20 7.7681 	-0.116907 	-4.87041e-20 7.76065 	-0.11757 	-4.79244e-20 7.75506 	-0.117869 	-5.18468e-20 7.74699 	-0.118889 	-4.01195e-20 7.73961 	-0.119581 	-2.83692e-20 7.73221 	-0.120272 	-1.6617e-20 7.72477 	-0.120964 	-4.86283e-21 7.72003 	-0.121138 	0 7.71166 	-0.122327 	-1.96126e-21 7.70429 	-0.123048 	-7.28606e-21 7.6969 	-0.123769 	-1.26098e-20 7.68948 	-0.124491 	-1.79326e-20 7.68556 	-0.124545 	-2.32249e-20 7.67687 	-0.1259 	-5.90464e-20 7.66952 	-0.126652 	-8.11089e-20 7.66214 	-0.127405 	-1.03174e-19 7.65472 	-0.128158 	-1.2524e-19 7.65159 	-0.128101 	-1.08457e-19 7.64266 	-0.129589 	-8.03528e-20 7.63524 	-0.130405 	-6.71286e-20 7.62786 	-0.131191 	-5.45608e-20 7.62113 	-0.131848 	-4.82195e-20 7.61809 	-0.131817 	-7.51769e-20 7.60918 	-0.133322 	-9.06787e-20 7.60141 	-0.134317 	-7.93757e-20 7.59402 	-0.135137 	-5.89207e-20 7.58812 	-0.135676 	-3.26344e-20 7.585 	-0.135699 	4.27833e-21 7.5761 	-0.137221 	8.98525e-21 7.56798 	-0.138391 	8.2003e-21 7.56057 	-0.139248 	2.52649e-21 7.55548 	-0.139673 	0 7.55227 	-0.139753 	0 7.54336 	-0.141294 	0 7.53489 	-0.142636 	0 7.52745 	-0.143529 	0 7.52315 	-0.143848 	0 7.51984 	-0.143983 	0 7.51093 	-0.145545 	0 7.50209 	-0.147056 	-1.5878e-21 7.49462 	-0.147987 	-2.10986e-20 7.49108 	-0.148204 	-4.06936e-20 7.48766 	-0.148397 	-6.02911e-20 7.47874 	-0.149982 	-3.89568e-20 7.46977 	-0.151567 	-1.76143e-20 7.46274 	-0.152501 	3.81275e-21 7.45922 	-0.152751 	8.31727e-21 7.45569 	-0.153 	1.28216e-20 7.44675 	-0.15461 	4.8597e-20 7.43775 	-0.15622 	8.43703e-20 7.43117 	-0.157186 	9.64607e-20 7.42753 	-0.157493 	8.00611e-20 7.42388 	-0.1578 	6.36586e-20 7.41491 	-0.159437 	3.6989e-20 7.40588 	-0.161073 	1.03088e-20 7.39971 	-0.162073 	6.29673e-21 7.39594 	-0.162438 	1.65587e-20 7.39216 	-0.162804 	2.68221e-20 7.38315 	-0.164469 	9.64309e-20 7.37408 	-0.166134 	1.66044e-19 7.36832 	-0.167169 	1.66847e-19 7.36441 	-0.167593 	9.80364e-20 7.36049 	-0.168016 	2.92241e-20 7.35143 	-0.169711 	1.99442e-20 7.34258 	-0.17136 	1.13655e-20 7.33713 	-0.172405 	1.19451e-20 7.33289 	-0.172961 	2.07054e-20 7.32881 	-0.173443 	3.06986e-20 7.3197 	-0.17517 	9.85012e-20 7.31164 	-0.176702 	1.44707e-19 7.30608 	-0.177793 	1.41997e-19 7.30132 	-0.178548 	1.00187e-19 7.29707 	-0.179089 	3.32184e-20 7.2879 	-0.180848 	2.42428e-20 7.28062 	-0.182268 	1.51747e-20 7.27492 	-0.183405 	6.02982e-21 7.26965 	-0.184359 	0 7.26523 	-0.184959 	0 7.25598 	-0.186753 	0 7.24946 	-0.188063 	0 7.24362 	-0.189248 	0 7.23782 	-0.190399 	0 7.23322 	-0.191056 	0 7.22404 	-0.192859 	0 7.21809 	-0.194092 	0 7.2121 	-0.195324 	0 7.20607 	-0.196557 	0 7.20099 	-0.197386 	1.34743e-20 7.19258 	-0.199076 	2.84349e-21 7.18648 	-0.200357 	1.22742e-20 7.18033 	-0.201638 	2.17081e-20 7.17413 	-0.202918 	3.11449e-20 7.1685 	-0.203952 	4.28152e-20 7.16084 	-0.205532 	8.61166e-20 7.15456 	-0.206861 	9.04821e-20 7.14824 	-0.208191 	9.48184e-20 7.14187 	-0.20952 	9.91253e-20 7.13569 	-0.210757 	8.12089e-20 7.13124 	-0.211691 	9.47991e-20 7.12732 	-0.212531 	8.65582e-20 7.12337 	-0.213371 	7.83061e-20 7.11941 	-0.214211 	7.0043e-20 7.1156 	-0.215017 	6.21099e-20 7.11293 	-0.215561 	5.71036e-20 7.11025 	-0.216104 	5.20935e-20 7.10757 	-0.216648 	4.70797e-20 7.10488 	-0.217192 	4.20621e-20 7.10267 	-0.217681 	4.28433e-20 7.0956 	-0.21916 	4.08593e-20 7.08875 	-0.220584 	3.93569e-20 7.08185 	-0.222009 	3.78474e-20 7.0749 	-0.223433 	3.63308e-20 7.06966 	-0.224666 	4.04466e-20 7.06167 	-0.226331 	3.39541e-20 7.05461 	-0.227806 	3.28464e-20 7.04751 	-0.22928 	3.17314e-20 7.04035 	-0.230754 	3.06092e-20 7.03619 	-0.231901 	4.20353e-20 7.02724 	-0.233753 	5.34518e-20 7.01997 	-0.235278 	4.654e-20 7.01265 	-0.236802 	3.96391e-20 7.00532 	-0.238322 	3.25492e-20 7.00219 	-0.239389 	4.00936e-21 6.99259 	-0.241366 	2.89623e-22 6.98477 	-0.243 	-1.79843e-22 6.97722 	-0.244574 	-7.26767e-23 6.971 	-0.246002 	0 6.96762 	-0.247126 	0 6.9578 	-0.249145 	0 6.94896 	-0.250971 	-7.09931e-21 6.94117 	-0.252593 	-2.1717e-20 6.93605 	-0.25393 	-3.3727e-20 6.93242 	-0.255109 	-4.42834e-20 6.92237 	-0.25717 	-3.10506e-20 6.91248 	-0.259189 	-1.74487e-20 6.90443 	-0.260858 	-9.23919e-22 6.90044 	-0.262105 	7.15565e-21 6.89653 	-0.263338 	1.49811e-20 6.88623 	-0.265441 	8.32692e-21 6.87586 	-0.267544 	1.67809e-21 6.86824 	-0.269238 	1.28275e-20 6.86409 	-0.270525 	3.53109e-20 6.8599 	-0.271812 	5.77939e-20 6.84934 	-0.273957 	3.41719e-20 6.83871 	-0.276102 	1.05449e-20 6.83141 	-0.277849 	-2.38291e-21 6.82696 	-0.279188 	-5.94611e-21 6.82247 	-0.280527 	-9.51124e-21 6.81165 	-0.282713 	-6.44678e-20 6.80077 	-0.284895 	-1.19076e-19 6.79394 	-0.286664 	-1.26865e-19 6.78899 	-0.288089 	-8.86085e-20 6.78419 	-0.289478 	-4.55386e-20 6.77308 	-0.291703 	-8.95717e-20 6.76343 	-0.293775 	-1.14917e-19 6.75631 	-0.295588 	-1.0866e-19 6.75013 	-0.297221 	-8.35103e-20 6.74501 	-0.298658 	-3.76674e-20 6.73361 	-0.30092 	-8.39238e-20 6.72519 	-0.302879 	-8.79764e-20 6.71776 	-0.304734 	-7.75644e-20 6.71033 	-0.306576 	-6.57473e-20 6.70487 	-0.308059 	-1.37552e-20 6.69369 	-0.310307 	-1.08427e-20 6.68599 	-0.312202 	-7.67628e-21 6.67823 	-0.314097 	-4.512e-21 6.67041 	-0.315992 	-1.34986e-21 6.66372 	-0.317677 	0 6.65381 	-0.319804 	0 6.64579 	-0.321738 	0 6.6377 	-0.323672 	0 6.62954 	-0.325606 	0 6.62151 	-0.327505 	0 6.61957 	-0.327921 	-3.90918e-22 6.61795 	-0.328305 	-1.05148e-21 6.61633 	-0.32869 	-1.71211e-21 6.6147 	-0.329074 	-2.37282e-21 6.61309 	-0.329453 	-3.02392e-21 6.60596 	-0.331036 	-5.2913e-21 6.59878 	-0.33262 	-7.55725e-21 6.59156 	-0.334203 	-9.82176e-21 6.58428 	-0.335785 	-1.20848e-20 6.57786 	-0.33725 	-1.4289e-20 6.56828 	-0.339384 	-5.32486e-22 6.55904 	-0.341384 	2.52365e-21 6.54972 	-0.343383 	5.6022e-21 6.54033 	-0.345382 	8.70325e-21 6.53291 	-0.347117 	-1.78512e-20 6.5224 	-0.349449 	-9.32919e-21 6.51276 	-0.35148 	-5.88088e-22 6.50304 	-0.353511 	8.15075e-21 6.4939 	-0.355456 	1.59408e-20 6.4866 	-0.35716 	2.10226e-20 6.47565 	-0.359524 	1.47021e-20 6.46506 	-0.361751 	1.18238e-20 6.45492 	-0.363809 	1.31488e-20 6.44659 	-0.365631 	2.39772e-20 6.43888 	-0.367365 	3.83038e-20 6.42751 	-0.369751 	4.62672e-20 6.41604 	-0.372137 	5.42277e-20 6.40588 	-0.374197 	4.89673e-20 6.39782 	-0.375959 	2.55292e-20 6.3897 	-0.377721 	2.07845e-21 6.37788 	-0.380127 	2.24408e-20 6.36596 	-0.382532 	4.27926e-20 6.35603 	-0.384642 	3.98613e-20 6.34755 	-0.386428 	9.52162e-21 6.33899 	-0.388215 	-2.08276e-20 6.32671 	-0.390636 	-1.33507e-20 6.31493 	-0.392985 	-5.26836e-21 6.30507 	-0.39509 	4.87288e-21 6.29571 	-0.39702 	9.58605e-21 6.28671 	-0.398826 	1.03706e-20 6.27396 	-0.401259 	1.20694e-20 6.26309 	-0.403453 	1.34039e-20 6.25277 	-0.40557 	1.46256e-20 6.24237 	-0.407686 	1.58559e-20 6.2328 	-0.409534 	2.10561e-20 6.22034 	-0.411881 	1.6676e-20 6.20964 	-0.414006 	1.22865e-20 6.19885 	-0.41613 	7.90161e-21 6.18798 	-0.418254 	3.52128e-21 6.17722 	-0.420319 	0 6.17384 	-0.420938 	0 6.17085 	-0.42151 	0 6.16786 	-0.422081 	0 6.16486 	-0.422653 	0 6.16192 	-0.423213 	0 6.15405 	-0.424775 	0 6.14614 	-0.426336 	0 6.13819 	-0.427898 	0 6.13019 	-0.429458 	0 6.12223 	-0.43089 	-4.12372e-21 6.11154 	-0.433181 	1.81676e-21 6.10035 	-0.435312 	5.56984e-21 6.08907 	-0.437442 	9.31894e-21 6.07771 	-0.439571 	1.3064e-20 6.06646 	-0.441391 	2.61355e-20 6.05567 	-0.443823 	4.84116e-20 6.04419 	-0.446024 	5.64769e-20 6.03242 	-0.448147 	5.98454e-20 6.02066 	-0.450097 	5.12001e-20 6.00891 	-0.451901 	3.22993e-20 5.99762 	-0.454319 	3.47622e-20 5.98624 	-0.456736 	3.72316e-20 5.97399 	-0.458811 	2.98007e-20 5.96181 	-0.460603 	1.19489e-20 5.94954 	-0.462395 	-5.90422e-21 5.93774 	-0.464794 	-3.47478e-20 5.92584 	-0.467192 	-6.35838e-20 5.91382 	-0.469299 	-7.00179e-20 5.90111 	-0.471072 	-4.67137e-20 5.88831 	-0.472846 	-2.34069e-20 5.87598 	-0.475219 	1.35994e-20 5.86362 	-0.477477 	3.49113e-20 5.85126 	-0.47953 	2.81514e-20 5.83853 	-0.481475 