# vtk DataFile Version 2.0
track0
ASCII
DATASET POLYDATA
POINTS 12075 float
-0.0205 0.001 1e-05
-0.02052 0.000999985 1e-05
-0.02054 0.000999974 1e-05
-0.02056 0.000999965 1e-05
-0.02058 0.000999959 1e-05
-0.0206 0.000999956 1e-05
-0.0205 0.00367778 1e-05
-0.02052 0.00367778 1e-05
-0.02054 0.00367777 1e-05
-0.02056 0.00367777 1e-05
-0.02058 0.00367777 1e-05
-0.0206 0.00367777 1e-05
-0.0205 0.00635556 1e-05
-0.02052 0.00635555 1e-05
-0.02054 0.00635555 1e-05
-0.02056 0.00635555 1e-05
-0.02058 0.00635555 1e-05
-0.0206 0.00635555 1e-05
-0.0205 0.00903333 1e-05
-0.02052 0.00903333 1e-05
-0.02054 0.00903333 1e-05
-0.02056 0.00903333 1e-05
-0.02058 0.00903333 1e-05
-0.0206 0.00903333 1e-05
-0.0205 0.0117111 1e-05
-0.02052 0.0117111 1e-05
-0.02054 0.0117111 1e-05
-0.02056 0.0117111 1e-05
-0.02058 0.0117111 1e-05
-0.0206 0.0117111 1e-05
-0.0205 0.0143889 1e-05
-0.02052 0.0143889 1e-05
-0.02054 0.0143889 1e-05
-0.02056 0.0143889 1e-05
-0.02058 0.0143889 1e-05
-0.0206 0.0143889 1e-05
-0.0205 0.0170667 1e-05
-0.02052 0.0170667 1e-05
-0.02054 0.0170667 1e-05
-0.02056 0.0170667 1e-05
-0.02058 0.0170667 1e-05
-0.0206 0.0170667 1e-05
-0.0205 0.0197444 1e-05
-0.02052 0.0197444 1e-05
-0.02054 0.0197444 1e-05
-0.02056 0.0197444 1e-05
-0.02058 0.0197444 1e-05
-0.0206 0.0197444 1e-05
-0.0205 0.0224222 1e-05
-0.02052 0.0224222 1e-05
-0.02054 0.0224222 1e-05
-0.02056 0.0224222 1e-05
-0.02058 0.0224222 1e-05
-0.0206 0.0224222 1e-05
-0.0205 0.0251 1e-05
-0.02052 0.0250998 1e-05
-0.02054 0.0250997 1e-05
-0.02056 0.0250995 1e-05
-0.02058 0.0250995 1e-05
-0.0206 0.0250994 1e-05
-0.0205 0.001 1e-05
-0.0202034 0.00100022 1e-05
-0.0199069 0.00100067 1e-05
-0.0196103 0.00100132 1e-05
-0.0193137 0.00100219 1e-05
-0.0190172 0.00100326 1e-05
-0.0187132 0.00100466 1e-05
-0.0184093 0.00100588 1e-05
-0.0181054 0.0010071 1e-05
-0.0178015 0.00100832 1e-05
-0.0174976 0.00100953 1e-05
-0.0172058 0.00101083 1e-05
-0.016914 0.00101193 1e-05
-0.0166222 0.00101303 1e-05
-0.0163305 0.00101413 1e-05
-0.0160387 0.00101523 1e-05
-0.0157586 0.00101636 1e-05
-0.0154784 0.00101745 1e-05
-0.0151983 0.00101856 1e-05
-0.0149182 0.00101972 1e-05
-0.0146381 0.0010209 1e-05
-0.0143747 0.00102209 1e-05
-0.0141113 0.00102327 1e-05
-0.0138479 0.00102449 1e-05
-0.0135846 0.00102574 1e-05
-0.0133621 0.00102682 1e-05
-0.0133484 0.00102689 1e-05
-0.0133346 0.00102695 1e-05
-0.0133209 0.00102702 1e-05
-0.0133072 0.00102709 1e-05
-0.0132934 0.00102716 1e-05
-0.0130353 0.00102845 1e-05
-0.0127771 0.00102975 1e-05
-0.0125189 0.00103107 1e-05
-0.0122607 0.0010324 1e-05
-0.0120025 0.00103376 1e-05
-0.0117547 0.00103506 1e-05
-0.0115068 0.00103638 1e-05
-0.0112589 0.0010377 1e-05
-0.0110111 0.00103903 1e-05
-0.0107632 0.00104036 1e-05
-0.0105252 0.00104163 1e-05
-0.0102873 0.00104291 1e-05
-0.0100493 0.00104419 1e-05
-0.00981133 0.00104547 1e-05
-0.00957337 0.00104675 1e-05
-0.00934491 0.00104797 1e-05
-0.00911645 0.00104919 1e-05
-0.00888799 0.00105041 1e-05
-0.00865954 0.00105163 1e-05
-0.00843108 0.00105285 1e-05
-0.00821175 0.001054 1e-05
-0.00799242 0.00105516 1e-05
-0.00777309 0.00105632 1e-05
-0.00755376 0.00105747 1e-05
-0.00733443 0.00105861 1e-05
-0.00712387 0.0010597 1e-05
-0.0069133 0.0010608 1e-05
-0.00670273 0.00106188 1e-05
-0.00649216 0.00106297 1e-05
-0.0062816 0.00106405 1e-05
-0.00607944 0.00106507 1e-05
-0.00587729 0.0010661 1e-05
-0.00567514 0.00106713 1e-05
-0.00547298 0.00106815 1e-05
-0.00527083 0.00106916 1e-05
-0.00507675 0.00107013 1e-05
-0.00488267 0.00107109 1e-05
-0.0046886 0.00107206 1e-05
-0.00449452 0.00107302 1e-05
-0.00430044 0.00107397 1e-05
-0.00411412 0.00107488 1e-05
-0.0039278 0.00107579 1e-05
-0.00374147 0.0010767 1e-05
-0.00355515 0.00107761 1e-05
-0.00336883 0.00107851 1e-05
-0.00318995 0.00107937 1e-05
-0.00301107 0.00108023 1e-05
-0.00283219 0.00108109 1e-05
-0.00265331 0.00108194 1e-05
-0.00247443 0.0010828 1e-05
-0.0023027 0.00108361 1e-05
-0.00213097 0.00108443 1e-05
-0.00195924 0.00108525 1e-05
-0.0017875 0.00108607 1e-05
-0.00161577 0.00108688 1e-05
-0.0014509 0.00108766 1e-05
-0.00128603 0.00108844 1e-05
-0.00112116 0.00108923 1e-05
-0.000956289 0.00109002 1e-05
-0.000791418 0.00109081 1e-05
-0.000633135 0.00109156 1e-05
-0.000474851 0.00109233 1e-05
-0.000316567 0.00109309 1e-05
-0.000158284 0.00109386 1e-05
0 0.00109462 1e-05
0.000105677 0.00109513 1e-05
0.000211355 0.00109564 1e-05
0.000317032 0.00109615 1e-05
0.00042271 0.00109666 1e-05
0.000528387 0.00109716 1e-05
0.000634886 0.00109767 1e-05
0.000741385 0.00109817 1e-05
0.000847885 0.00109866 1e-05
0.000954384 0.00109916 1e-05
0.00106088 0.00109965 1e-05
0.00116821 0.00110014 1e-05
0.00127554 0.00110062 1e-05
0.00138286 0.0011011 1e-05
0.00149019 0.00110157 1e-05
0.00159752 0.00110203 1e-05
0.00170568 0.00110249 1e-05
0.00181384 0.00110294 1e-05
0.001922 0.00110338 1e-05
0.00203016 0.00110382 1e-05
0.00213833 0.00110424 1e-05
0.00224733 0.00110466 1e-05
0.00235633 0.00110507 1e-05
0.00246533 0.00110548 1e-05
0.00257434 0.00110587 1e-05
0.00268334 0.00110626 1e-05
0.00279319 0.00110663 1e-05
0.00290304 0.00110701 1e-05
0.00301289 0.00110737 1e-05
0.00312274 0.00110773 1e-05
0.00323259 0.00110808 1e-05
0.00334329 0.00110841 1e-05
0.003454 0.00110875 1e-05
0.0035647 0.00110908 1e-05
0.0036754 0.0011094 1e-05
0.00378611 0.00110971 1e-05
0.00389767 0.00111001 1e-05
0.00400924 0.00111031 1e-05
0.0041208 0.0011106 1e-05
0.00423237 0.00111088 1e-05
0.00434393 0.00111116 1e-05
0.00445636 0.00111142 1e-05
0.00456879 0.00111168 1e-05
0.00468123 0.00111193 1e-05
0.00479366 0.00111218 1e-05
0.00490609 0.00111241 1e-05
0.0050194 0.00111264 1e-05
0.0051327 0.00111286 1e-05
0.00524601 0.00111308 1e-05
0.00535932 0.00111328 1e-05
0.00547262 0.00111348 1e-05
0.00558681 0.00111367 1e-05
0.005701 0.00111385 1e-05
0.00581518 0.00111403 1e-05
0.00592937 0.0011142 1e-05
0.00604356 0.00111436 1e-05
0.00615863 0.00111451 1e-05
0.00627371 0.00111466 1e-05
0.00638878 0.0011148 1e-05
0.00650386 0.00111493 1e-05
0.00661893 0.00111505 1e-05
0.0067349 0.00111517 1e-05
0.00685087 0.00111527 1e-05
0.00696684 0.00111537 1e-05
0.00708281 0.00111547 1e-05
0.00719878 0.00111555 1e-05
0.00731483 0.00111563 1e-05
0.00743087 0.0011157 1e-05
0.00754692 0.00111576 1e-05
0.00766297 0.00111581 1e-05
0.00777244 0.00111585 1e-05
0.00777458 0.00111586 1e-05
0.00777672 0.00111586 1e-05
0.00777886 0.00111586 1e-05
0.007781 0.00111586 1e-05
0.00778313 0.00111586 1e-05
0.00790091 0.0011159 1e-05
0.00801869 0.00111593 1e-05
0.00813647 0.00111595 1e-05
0.00825425 0.00111596 1e-05
0.00837203 0.00111597 1e-05
0.00849073 0.00111596 1e-05
0.00860942 0.00111595 1e-05
0.00872812 0.00111593 1e-05
0.00884682 0.00111591 1e-05
0.00896551 0.00111587 1e-05
0.00908513 0.00111582 1e-05
0.00920475 0.00111577 1e-05
0.00932437 0.00111571 1e-05
0.00944398 0.00111564 1e-05
0.0095636 0.00111556 1e-05
0.00968415 0.00111546 1e-05
0.0098047 0.00111537 1e-05
0.00992525 0.00111526 1e-05
0.0100458 0.00111515 1e-05
0.0101663 0.00111503 1e-05
0.0102878 0.00111489 1e-05
0.0104093 0.00111475 1e-05
0.0105308 0.0011146 1e-05
0.0106523 0.00111444 1e-05
0.0107738 0.00111428 1e-05
0.0108962 0.00111409 1e-05
0.0110186 0.0011139 1e-05
0.0111411 0.00111371 1e-05
0.0112635 0.0011135 1e-05
0.0113859 0.00111329 1e-05
0.0115093 0.00111305 1e-05
0.0116327 0.00111282 1e-05
0.0117561 0.00111258 1e-05
0.0118795 0.00111233 1e-05
0.0120028 0.00111207 1e-05
0.0121272 0.00111178 1e-05
0.0122515 0.0011115 1e-05
0.0123759 0.00111121 1e-05
0.0125002 0.00111091 1e-05
0.0126245 0.0011106 1e-05
0.0127498 0.00111027 1e-05
0.0128752 0.00110994 1e-05
0.0130005 0.0011096 1e-05
0.0131258 0.00110925 1e-05
0.0132511 0.00110889 1e-05
0.0133774 0.0011085 1e-05
0.0135036 0.00110812 1e-05
0.0136299 0.00110773 1e-05
0.0137562 0.00110733 1e-05
0.0138825 0.00110692 1e-05
0.0140098 0.00110648 1e-05
0.014137 0.00110605 1e-05
0.0142643 0.00110561 1e-05
0.0143915 0.00110515 1e-05
0.0145188 0.00110469 1e-05
0.0146471 0.0011042 1e-05
0.0147753 0.00110372 1e-05
0.0149036 0.00110322 1e-05
0.0150318 0.00110271 1e-05
0.0151601 0.00110219 1e-05
0.0152893 0.00110166 1e-05
0.0154186 0.00110111 1e-05
0.0155478 0.00110056 1e-05
0.0156771 0.0011 1e-05
0.0158063 0.00109943 1e-05
0.0159366 0.00109884 1e-05
0.0160668 0.00109824 1e-05
0.0161971 0.00109764 1e-05
0.0163274 0.00109702 1e-05
0.0164576 0.00109639 1e-05
0.0165889 0.00109575 1e-05
0.0167201 0.0010951 1e-05
0.0168514 0.00109444 1e-05
0.0169827 0.00109376 1e-05
0.0171139 0.00109308 1e-05
0.0172462 0.00109239 1e-05
0.0173785 0.00109168 1e-05
0.0175108 0.00109096 1e-05
0.0176431 0.00109023 1e-05
0.0177754 0.0010895 1e-05
0.0179087 0.00108875 1e-05
0.018042 0.00108799 1e-05
0.0181753 0.00108721 1e-05
0.0183087 0.00108642 1e-05
0.018442 0.00108563 1e-05
0.0185763 0.00108484 1e-05
0.0187107 0.00108402 1e-05
0.018845 0.00108318 1e-05
0.0189794 0.00108234 1e-05
0.0191137 0.00108149 1e-05
0.0192491 0.00108064 1e-05
0.0193845 0.00107977 1e-05
0.0195199 0.00107887 1e-05
0.0196553 0.00107797 1e-05
0.0197907 0.00107706 1e-05
0.0199272 0.00107616 1e-05
0.0200636 0.00107523 1e-05
0.0202001 0.00107428 1e-05
0.0203365 0.00107331 1e-05
0.020473 0.00107236 1e-05
0.0206105 0.0010714 1e-05
0.020748 0.00107041 1e-05
0.0208855 0.0010694 1e-05
0.021023 0.00106838 1e-05
0.0211606 0.00106737 1e-05
0.0212991 0.00106635 1e-05
0.0214377 0.00106531 1e-05
0.0215763 0.00106424 1e-05
0.0217149 0.00106316 1e-05
0.0218535 0.00106209 1e-05
0.0219931 0.00106102 1e-05
0.0221328 0.00105992 1e-05
0.0222724 0.0010588 1e-05
0.0224121 0.00105766 1e-05
0.0225517 0.00105653 1e-05
0.0226925 0.0010554 1e-05
0.0228332 0.00105424 1e-05
0.022974 0.00105306 1e-05
0.0231147 0.00105186 1e-05
0.0232555 0.00105068 1e-05
0.0233973 0.00104949 1e-05
0.0235391 0.00104827 1e-05
0.023681 0.00104703 1e-05
0.0238228 0.00104577 1e-05
0.0239647 0.00104453 1e-05
0.0241076 0.00104328 1e-05
0.0242505 0.00104201 1e-05
0.0243935 0.0010407 1e-05
0.0245364 0.00103939 1e-05
0.0246794 0.00103808 1e-05
0.0248234 0.00103678 1e-05
0.0249675 0.00103544 1e-05
0.0251115 0.00103408 1e-05
0.0252556 0.0010327 1e-05
[...]
POINT_DATA 12075
 FIELD attributes 2
p 1 12075 float
-5.65495 -5.65163 -5.64831 -5.645 -5.64169 -5.63837
-5.80729 -5.80727 -5.80725 -5.80723 -5.8072 -5.80718
-5.98139 -5.98127 -5.98115 -5.98102 -5.9809 -5.98079
-6.07471 -6.07465 -6.0746 -6.07455 -6.07449 -6.07444
-6.11982 -6.1197 -6.11959 -6.11948 -6.11936 -6.11925
-6.12641 -6.12625 -6.12609 -6.12593 -6.12577 -6.12561
-6.09956 -6.09949 -6.09942 -6.09934 -6.09927 -6.0992
-6.03007 -6.03003 -6.02999 -6.02994 -6.0299 -6.02986
-5.90883 -5.90883 -5.90884 -5.90885 -5.90885 -5.90886
-3.69625 -3.71558 -3.73478 -3.75385 -3.77278 -3.79158
-5.65495 -5.65423 -5.65062 -5.64692 -5.64314 -5.63477 -5.64861 -5.66357 -5.67854 -5.69351 -5.71792 -5.73968 -5.7696 -5.79952 -5.82945 -5.86218 -5.87782 -5.89951 -5.9212 -5.94288 -5.96619 -5.98505 -6.00593 -6.0268 -6.04768 -6.06531 -6.0664 -6.06749 -6.06857 -6.06966 -6.07074 -6.09237 -6.11401 -6.13564 -6.15728 -6.17864 -6.19737 -6.21591 -6.23445 -6.25298 -6.27095 -6.28653 -6.30183 -6.31713 -6.33243 -6.34717 -6.36089 -6.37436 -6.38782 -6.40129 -6.4143 -6.42694 -6.4393 -6.45167 -6.46403 -6.47597 -6.48767 -6.49905 -6.51044 -6.52183 -6.53278 -6.54362 -6.55416 -6.5647 -6.57524 -6.58541 -6.59556 -6.60542 -6.61527 -6.62513 -6.63465 -6.64423 -6.65358 -6.66293 -6.67227 -6.68141 -6.69058 -6.69941 -6.70824 -6.71706 -6.72569 -6.73458 -6.74355 -6.75253 -6.7615 -6.77075 -6.78026 -6.78939 -6.79853 -6.80767 -6.81682 -6.82688 -6.83826 -6.84964 -6.86102 -6.87313 -6.88458 -6.89758 -6.91058 -6.92358 -6.93619 -6.94768 -6.95889 -6.9701 -6.98131 -6.99138 -6.99977 -7.00885 -7.01793 -7.02701 -7.0366 -7.04517 -7.05396 -7.06274 -7.07153 -7.08035 -7.08884 -7.09623 -7.10362 -7.11101 -7.11742 -7.12452 -7.13026 -7.136 -7.14174 -7.14632 -7.15222 -7.15703 -7.16184 -7.16665 -7.17046 -7.17545 -7.17953 -7.18361 -7.18769 -7.19095 -7.19496 -7.19822 -7.20148 -7.20474 -7.20742 -7.21046 -7.21296 -7.21545 -7.21795 -7.22009 -7.22247 -7.22449 -7.22652 -7.22854 -7.23037 -7.23245 -7.23431 -7.23616 -7.23801 -7.23977 -7.24168 -7.24345 -7.24523 -7.247 -7.24872 -7.25048 -7.25217 -7.25386 -7.25555 -7.25714 -7.25717 -7.2572 -7.25723 -7.25726 -7.2573 -7.25897 -7.26064 -7.26231 -7.26398 -7.26582 -7.26732 -7.26901 -7.2707 -7.27239 -7.27447 -7.27579 -7.27756 -7.27932 -7.28108 -7.28356 -7.2847 -7.2866 -7.28849 -7.29039 -7.29335 -7.29432 -7.29634 -7.29837 -7.30039 -7.30384 -7.3046 -7.30673 -7.30885 -7.31098 -7.31487 -7.31544 -7.31768 -7.31992 -7.32215 -7.32647 -7.32692 -7.32929 -7.33165 -7.33402 -7.33873 -7.3391 -7.3416 -7.3441 -7.3466 -7.35166 -7.35198 -7.35461 -7.35725 -7.35988 -7.36522 -7.36556 -7.36832 -7.37107 -7.37392 -7.37941 -7.37999 -7.3827 -7.38559 -7.38883 -7.39423 -7.39516 -7.39778 -7.4008 -7.40439 -7.40968 -7.41096 -7.41354 -7.41669 -7.42057 -7.42575 -7.42738 -7.42996 -7.43323 -7.43736 -7.44243 -7.44439 -7.447 -7.4504 -7.45473 -7.45969 -7.46197 -7.46465 -7.46817 -7.47265 -7.47752 -7.48009 -7.48287 -7.48651 -7.49111 -7.4959 -7.49874 -7.50165 -7.50539 -7.51008 -7.51481 -7.5179 -7.52099 -7.52486 -7.52955 -7.53423 -7.53755 -7.54088 -7.54486 -7.54951 -7.55416 -7.55771 -7.56126 -7.56534 -7.56995 -7.57456 -7.57831 -7.58206 -7.58622 -7.59078 -7.59535 -7.59927 -7.6032 -7.60742 -7.61195 -7.61648 -7.62054 -7.6246 -7.62889 -7.63339 -7.6379 -7.64205 -7.6462 -7.65053 -7.65504 -7.65954 -7.66376 -7.66799 -7.67237 -7.67689 -7.68141 -7.68569 -7.68999 -7.69442 -7.69895 -7.70349 -7.70781 -7.71218 -7.71664 -7.72117 -7.72574 -7.73009 -7.73451 -7.739 -7.74353 -7.74811 -7.75248 -7.75693 -7.76143 -7.76597 -7.77056 -7.77493 -7.7794 -7.78391 -7.78843 -7.79302 -7.79739 -7.80187 -7.80637 -7.81086 -7.81544 -7.8198 -7.82428 -7.82876 -7.83323 -7.83778 -7.84212 -7.84657 -7.85102 -7.85547 -7.85996 -7.86429 -7.8687 -7.8731 -7.87751 -7.88195 -7.88624 -7.89059 -7.89494 -7.89929 -7.90366 -7.90791 -7.91219 -7.91646 -7.92074 -7.92503 -7.92826 -7.93149 -7.93473 -7.93797 -7.9411 -7.94208 -7.94305 -7.94402 -7.945 -7.94598 -7.95007 -7.95417 -7.95826 -7.96236 -7.96647 -7.97045 -7.97443 -7.97842 -7.9824 -7.9864 -7.99027 -7.99412 -7.99798 -8.00184 -8.00571 -8.00945 -8.01316 -8.01687 -8.02058 -8.02429 -8.02789 -8.03142 -8.03495 -8.03848 -8.042 -8.04543 -8.04876 -8.05209 -8.05542 -8.05872 -8.06196 -8.06511 -8.06822 -8.07133 -8.07441 -8.07743 -8.08039 -8.08327 -8.08612 -8.08895 -8.09174 -8.09448 -8.09711 -8.09967 -8.10221 -8.10474 -8.10725 -8.10959 -8.11183 -8.11406 -8.1163 -8.11854 -8.12058 -8.12247 -8.12437 -8.12628 -8.1282 -8.12991 -8.13144 -8.13297 -8.13453 -8.1361 -8.13746 -8.13859 -8.13972 -8.1409 -8.14209 -8.14307 -8.14378 -8.14449 -8.14526 -8.14603 -8.14659 -8.14689 -8.14715 -8.14749 -8.14776 -8.14786 -8.14777 -8.14754 -8.14742 -8.14714 -8.14676 -8.14625 -8.1455 -8.14487 -8.14401 -8.14309 -8.14215 -8.14086 -8.13967 -8.13819 -8.1367 -8.13522 -8.13343 -8.13158 -8.12949 -8.1274 -8.12532 -8.12303 -8.12047 -8.11774 -8.11502 -8.1123 -8.1095 -8.10749 -8.10541 -8.10333 -8.10126 -8.09927 -8.09795 -8.09664 -8.09532 -8.094 -8.09263 -8.08863 -8.08457 -8.08052 -8.07647 -8.07222 -8.06766 -8.06284 -8.05804 -8.05323 -8.04806 -8.04292 -8.03732 -8.03172 -8.02612 -8.01998 -8.01414 -8.0078 -8.00138 -7.99477 -7.98776 -7.98108 -7.9741 -7.9668 -7.95911 -7.95119 -7.94362 -7.93599 -7.92778 -7.91893 -7.91007 -7.90157 -7.89307 -7.88389 -7.87403 -7.86417 -7.8547 -7.84523 -7.83507 -7.82419 -7.8133 -7.80281 -7.79233 -7.78109 -7.7692 -7.75725 -7.74571 -7.73387 -7.72154 -7.70886 -7.69581 -7.68317 -7.66992 -7.65646 -7.64298 -7.62877 -7.61489 -7.60025 -7.58561 -7.57099 -7.55592 -7.5405 -7.52465 -7.50881 -7.49297 -7.47706 -7.4738 -7.47046 -7.46712 -7.46379 -7.4605 -7.44686 -7.43322 -7.41959 -7.40597 -7.39207 -7.37414 -7.35593 -7.33773 -7.31954 -7.3007 -7.28184 -7.26232 -7.24281 -7.22309 -7.20274 -7.18257 -7.16209 -7.14124 -7.11975 -7.09802 -7.07649 -7.05497 -7.03265 -7.00952 -6.98639 -6.96346 -6.94055 -6.9168 -6.89224 -6.86768 -6.84334 -6.81878 -6.79349 -6.76779 -6.74178 -6.71599 -6.68947 -6.66271 -6.63596 -6.60856 -6.58101 -6.55276 -6.52452 -6.49629 -6.46792 -6.46009 -6.4521 -6.44411 -6.43612 -6.42829 -6.4066 -6.38491 -6.36323 -6.34155 -6.31957 -6.28871 -6.25759 -6.22649 -6.19539 -6.16356 -6.13142 -6.09893 -6.06632 -6.0333 -5.99991 -5.96626 -5.93263 -5.89842 -5.86352 -5.82863 -5.79346 -5.75831 -5.7225 -5.68611 -5.64971 -5.61304 -5.57611 -5.53868 -5.50111 -5.46323 -5.42508 -5.38617 -5.34726 -5.30837 -5.26927 -5.24807 -5.22661 -5.20515 -5.18369 -5.16301 -5.14403 -5.12504 -5.10606 -5.08709 -5.06785 -5.02638 -4.98474 -4.94311 -4.90149 -4.85909 -4.81646 -4.77357 -4.73057 -4.68707 -4.64329 -4.59929 -4.55531 -4.51083 -4.46576 -4.42067 -4.37536 -4.33004 -4.28406 -4.23783 -4.19151 -4.14495 -4.09789 -4.05069 -4.0035 -3.95609 -3.92463 -3.89287 -3.86111 -3.82936 -3.79892 -3.7821 -3.76529 -3.74847 -3.73166 -3.71467 -3.66541 -3.61608 -3.56676 -3.51746 -3.46752 -3.41738 -3.36715 -3.31684 -3.26612 -3.21526 -3.16417 -3.11309 -3.0617 -3.01003 -2.95832 -2.90637 -2.85429 -2.80196 -2.74962 -2.69718 -2.64442 -2.59138 -2.53837 -2.48536 -2.43233 -2.43127 -2.43021 -2.42914 -2.42808 -2.42701 -2.37445 -2.32191 -2.26938 -2.21686 -2.16407 -2.10993 -2.05583 -2.00175 -1.94753 -1.89319 -1.83862 -1.78406 -1.72949 -1.67489 -1.62025 -1.56536 -1.51046 -1.45551 -1.40061 -1.3458 -1.29711 -1.24845 -1.19979 -1.15114 -1.10452 -1.09768 -1.09085 -1.08402 -1.07719 -1.07035 -1.01509 -0.959873 -0.904668 -0.849475 -0.794273 -0.738854 -0.683569 -0.628432 -0.573386 -0.518319 -0.463015 -0.407724 -0.352588 -0.297789 -0.242958 -0.18787 -0.13295 -0.0781077 -0.0232754 0.0313727 0.0532108 0.0749394 0.0966666 0.118392 0.139813 0.172757 0.205698 0.238637 0.271571 0.304406 0.359008 0.41327 0.467524 0.521651 0.575673 0.629861 0.684039 0.737819 0.791272 0.844754 0.898413 0.951951 1.00527 1.05853 1.11142 1.14985 1.18802 1.22619 1.26436 1.30186 1.31662 1.33137 1.34612 1.36088 1.37556 1.42809 1.48041 1.53273 1.58498 1.63698 1.68909 1.74116 1.79269 1.84388 1.8951 1.94644 1.99773 2.04864 2.09928 2.14966 2.19784 2.2456 2.29336 2.34111 2.38832 2.39077 2.39321 2.39565 2.3981 2.40052 2.45009 2.49961 2.54914 2.59866 2.6478 2.69699 2.74595 2.79459 2.84283 2.89106 2.93935 2.98764 3.03554 3.08292 3.13021 3.17759 3.22458 3.27151 3.31844 3.36521 3.37355 3.38181 3.39007 3.39834 3.4066 3.44459 3.48257 3.52056 3.55854 3.59621 3.64213 3.68763 3.73299 3.77805 3.82299 3.86799 3.91298 3.95755 4.00154 4.04554 4.0896 4.13342 4.17706 4.2207 4.26391 4.28504 4.30597 4.32691 4.34784 4.36889 4.39081 4.41273 4.43465 4.45657 4.47831 4.52083 4.56296 4.60509 4.64707 4.68881 4.73061 4.77241 4.81367 4.85457 4.89546 4.93644 4.97734 5.01796 5.05839 5.09847 5.13637 5.17398 5.21158 5.24919 5.2874 5.28954 5.29167 5.2938 5.29594 5.29805 5.33743 5.37677 5.4161 5.45545 5.49447 5.5336 5.57247 5.61113 5.64954 5.68789 5.72638 5.76487 5.80309 5.84086 5.87862 5.91652 5.95428 5.99195 6.02962 6.06695 6.08776 6.10847 6.12918 6.14988 6.17075 6.18727 6.20378 6.22029 6.2368 6.25323 6.29038 6.3273 6.36422 6.40108 6.43783 6.47472 6.51162 6.54818 6.58464 6.62108 6.65768 6.69426 6.73078 6.76716 6.80339 6.83976 6.87611 6.91247 6.94882 6.98516 6.98625 6.98735 6.98844 6.98953 6.99063 7.02587 7.06112 7.09636 7.13161 7.16687 7.20338 7.23979 7.27612 7.31253 7.34894 7.3855 7.42206 7.45871 7.49528 7.53185 7.56855 7.6054 7.6423 7.67921 7.71607 7.72884 7.7417 7.75456 7.76742 7.78021 7.80456 7.82891 7.85327 7.87762 7.90214 7.93972 7.97729 8.01487 8.05264 8.09054 8.12856 8.16657 8.20483 8.24327 8.28173 8.32028 8.35909 8.39809 8.43708 8.47616 8.49099 8.506 8.52102 8.53604 8.5509 8.57552 8.60014 8.62477 8.6494 8.67435 8.71449 8.75478 8.79509 8.83578 8.87666 8.91757 8.95849 8.99988 9.04159 9.08334 9.12509 9.16737 9.20977 9.25216 9.29462 9.29788 9.30119 9.30451 9.30782 9.31113 9.35095 9.39078 9.43061 9.4705 9.51095 9.55474 9.59857 9.64271 9.68742 9.73215 9.77685 9.82173 9.86708 9.91246 9.95809 9.98076 10.0037 10.0267 10.0497 10.0726 10.0957 10.1189 10.1421 10.1653 10.1888 10.2354 10.2822 10.3291 10.3764 10.4238 10.4712 10.5185 10.5664 10.6144 10.6625 10.6999 10.7376 10.7754 10.8131 10.8518 10.8622 10.8727 10.8831 10.8936 10.9041 10.9529 11.0016 11.0504 11.0993 11.1485 11.1975 11.2465 11.2954 11.344 11.3925 11.4408 11.4903 11.5402 11.5901 11.6401 11.6502 11.6589 11.6675 11.6761 11.6849 11.7216 11.7583 11.7949 11.8313 11.8623 11.9006 11.944 11.9909 12.0503 12.112 12.173 12.2327 12.2699 12.3048 12.3316 12.3416 12.3531 12.3658 12.3784 12.3918 12.4102 12.4287 12.4471 12.4671 12.4897 12.5262 12.5625 12.5987 12.6349 12.6709 12.7066 12.7401 12.772 12.8039 12.8352 12.8376 12.8399 12.842 12.8442 12.8464 12.8723 12.898 12.9237 12.9486 12.9715 12.9951 13.0185 13.0398 13.0589 13.0779 13.0952 13.1104 13.1241 13.1378 13.1504 13.1524 13.1536 13.1547 13.1559 13.1571 13.1634 13.1695 13.1756 13.1813 13.1845 13.1856 13.1851 13.1831 13.1771 13.1705 13.1607 13.1507 13.1364 13.1192 13.1013 13.0798 13.0537 13.0266 12.9994 12.9705 12.9593 12.9465 12.9337 12.921 12.9068 12.881 12.8551 12.8291 12.8031 12.7741 12.725 12.6723 12.6193 12.5643 12.5049 12.4407 12.3757 12.3062 12.2302 12.1541 12.0729 11.9916 11.9039 11.8101 11.7161 11.6167 11.5149 11.408 11.2986 11.186 11.0676 10.9418 10.8147 10.6877 10.5554 10.4125 10.2649 10.1173 9.96969 9.82076 9.75816 9.69355 9.62893 9.56431 9.48945 9.38477 9.28006 9.17531 9.07052 8.96257 8.77042 8.57706 8.38364 8.19015 7.99355 7.78217 7.55308 7.32385 7.09448 6.83885 6.5737 6.3252 6.07895 5.83821 5.61211 5.37817 5.09275 4.7647 4.37623 3.9447 3.49761 3.0893 2.80962 2.67051 2.56213 2.44958 2.33727 1.81991 0.909281 0