y,U_0,U_1,U_2
3.032,0.00219493,-4.21292e-07,8.50456e-25
3.02729,0.00471196,-1.7827e-06,-2.92798e-24
3.02196,0.00755933,-4.51984e-06,-1.11134e-24
3.01608,0.0104645,-8.83857e-06,-1.95625e-24
3.00969,0.0130892,-1.46584e-05,-7.36457e-24
3.00286,0.0153026,-2.18617e-05,8.07187e-24
2.99559,0.0171651,-3.04211e-05,6.17716e-24
2.98792,0.0187584,-4.02407e-05,-1.31807e-23
2.97986,0.0201425,-5.11384e-05,7.01444e-24
2.97139,0.0213602,-6.29298e-05,1.59791e-23
2.96254,0.0224416,-7.54188e-05,-6.53705e-24
2.95328,0.0234076,-8.84047e-05,-6.65287e-24
2.94362,0.0242728,-0.000101691,-1.02114e-23
2.93353,0.0250482,-0.000115097,-9.95611e-25
2.92302,0.0257424,-0.000128474,8.59613e-24
2.91207,0.0263629,-0.000141715,-9.41283e-24
2.90067,0.0269174,-0.000154763,-9.71947e-24
2.8888,0.0274152,-0.000167658,7.18211e-24
2.87646,0.0278663,-0.000180502,8.41436e-24
2.86362,0.0282775,-0.000193363,-1.52366e-23
2.85027,0.0286528,-0.000206268,-7.57515e-25
2.8364,0.0289952,-0.00021923,2.64905e-23
2.822,0.029307,-0.000232276,1.42412e-23
2.80705,0.0295906,-0.000245437,-1.07712e-23
2.79153,0.0298476,-0.000258745,-1.10958e-23
2.77544,0.0300797,-0.000272231,6.79647e-25
2.75876,0.0302881,-0.000285926,9.65268e-24
2.74147,0.0304742,-0.000299857,-9.79988e-24
2.72357,0.0306391,-0.000314051,8.20894e-24
2.70504,0.0307839,-0.000328532,2.62016e-23
2.68587,0.0309096,-0.000343324,-5.2329e-23
2.66605,0.0310173,-0.000358448,-2.42717e-24
2.64556,0.031108,-0.000373925,1.81601e-23
2.62441,0.0311826,-0.000389772,-1.57364e-23
2.60258,0.0312421,-0.000406009,2.80055e-23
2.58007,0.0312871,-0.000422652,1.49923e-23
2.55686,0.0313186,-0.000439716,-3.99655e-23
2.53296,0.0313371,-0.000457216,-2.87792e-23
2.50835,0.0313433,-0.000475164,5.88038e-23
2.48305,0.0313374,-0.00049357,2.56013e-23
2.45704,0.03132,-0.000512444,-3.39637e-23
2.43032,0.0312912,-0.000531791,-2.40824e-23
2.40291,0.0312513,-0.000551613,-4.18914e-23
2.3748,0.0312002,-0.000571911,5.26548e-23
2.346,0.0311381,-0.000592681,4.2869e-23
2.31651,0.0310649,-0.000613915,-5.86965e-23
2.28636,0.0309804,-0.000635601,-2.23329e-23
2.25554,0.0308844,-0.000657725,1.75443e-23
2.22407,0.0307768,-0.000680265,4.1175e-23
2.19198,0.0306573,-0.000703198,2.60172e-25
2.15926,0.0305256,-0.000726495,-2.00258e-23
2.12596,0.0303814,-0.000750126,1.96507e-23
2.09208,0.0302243,-0.000774057,7.87853e-25
2.05765,0.030054,-0.000798251,-2.79802e-24
2.0227,0.02987,-0.000822675,3.759e-25
1.98725,0.0296721,-0.000847295,-1.64697e-23
1.95134,0.0294596,-0.000872083,-1.62772e-23
1.915,0.0292321,-0.000897017,3.37452e-24
1.87826,0.0289887,-0.000922084,-3.31017e-24
1.84115,0.0287287,-0.000947281,-1.95171e-23
1.80371,0.028451,-0.000972618,2.0041e-23
1.76599,0.0281542,-0.000998117,-1.66847e-23
1.72801,0.0278369,-0.00102381,1.4835e-26
1.68983,0.0274976,-0.00104974,5.25133e-23
1.65148,0.0271344,-0.00107594,-5.29108e-23
1.613,0.0267456,-0.00110243,-1.91574e-23
1.57444,0.026329,-0.0011292,6.66714e-25
1.53585,0.0258826,-0.00115617,-1.57307e-26
1.49725,0.0254044,-0.00118315,5.31095e-23
1.45871,0.0248926,-0.00120983,8.65747e-25
1.42026,0.0243462,-0.00123567,-3.30579e-23
1.38194,0.0237649,-0.00126004,-1.1289e-23
1.3438,0.0231469,-0.00128261,1.27202e-23
1.30588,0.0224865,-0.00130339,1.2302e-23
1.26823,0.0217776,-0.00132254,2.16121e-23
1.23087,0.0210165,-0.00133987,3.31142e-23
1.19386,0.0202013,-0.00135494,-1.0876e-24
1.15722,0.0193322,-0.00136722,-3.30597e-23
1.12099,0.0184115,-0.0013762,4.11279e-25
1.08522,0.0174439,-0.00138139,-2.31194e-23
1.04992,0.016436,-0.00138238,1.65959e-23
1.01513,0.0153965,-0.00137883,2.18196e-23
0.980887,0.0143351,-0.00137052,-4.60713e-26
0.947204,0.0132629,-0.00135733,2.21509e-23
0.91411,0.0121909,-0.00133929,-1.64982e-23
0.881628,0.0111302,-0.00131655,-2.23921e-23
0.849776,0.0100907,-0.00128939,1.85245e-23
0.818574,0.009081,-0.00125823,-1.27806e-23
0.788036,0.00810794,-0.00122359,-3.80725e-23
0.758176,0.00717693,-0.00118605,-5.70638e-24
0.729005,0.00629278,-0.00114627,3.41307e-23
0.700532,0.00546067,-0.00110492,2.85642e-23
0.672765,0.00468673,-0.00106269,-5.43023e-24
0.645708,0.0039772,-0.00102023,-1.87342e-23
0.619366,0.00333573,-0.000978114,-1.85396e-23
0.593738,0.00275926,-0.000936876,-4.01028e-24
0.568826,0.00223552,-0.000896614,1.54654e-23
0.544627,0.0017504,-0.000857163,1.18151e-23
0.521139,0.00129722,-0.000818647,-1.33363e-23
0.498356,0.000873925,-0.000781216,-6.98887e-24
0.476272,0.000478544,-0.000744862,5.44126e-24
0.45488,0.000109196,-0.000709596,6.88685e-24
0.434171,-0.000235909,-0.000675428,4.90304e-26
0.414137,-0.000558467,-0.000642359,5.08868e-26
0.394767,-0.000860072,-0.000610381,-2.13549e-24
0.376049,-0.00114222,-0.00057948,-3.62744e-24
0.357972,-0.00140631,-0.000549641,7.13935e-24
0.340523,-0.00165365,-0.000520845,3.44454e-24
0.323689,-0.00188545,-0.000493069,-1.7159e-24
0.307457,-0.00210284,-0.000466291,1.04902e-25
0.291812,-0.00230685,-0.000440489,1.77981e-24
0.276741,-0.00249846,-0.000415638,3.44953e-24
0.262229,-0.00267854,-0.000391715,-5.26129e-24
0.24826,-0.00284792,-0.000368695,-3.63678e-24
0.234821,-0.00300735,-0.000346555,2.70351e-24
0.221896,-0.00315752,-0.00032527,-6.09533e-26
0.20947,-0.00329905,-0.000304818,-2.86844e-24
0.197529,-0.00343252,-0.000285174,-6.65028e-26
0.186057,-0.00355846,-0.000266316,-1.90013e-28
0.17504,-0.00367734,-0.000248222,-3.09304e-24
0.164463,-0.00378958,-0.00023087,2.17567e-24
0.154312,-0.00389556,-0.000214237,3.04299e-24
0.144573,-0.00399563,-0.000198303,-4.63509e-24
0.135231,-0.00409007,-0.000183047,6.70873e-26
0.126273,-0.00417912,-0.000168449,2.45889e-24
0.117685,-0.00426297,-0.000154491,2.79623e-24
0.109454,-0.00434177,-0.000141153,1.37016e-24
0.101568,-0.00441557,-0.000128418,-5.45762e-24
0.0940133,-0.00448437,-0.00011627,-3.18531e-24
0.0867783,-0.00454804,-0.000104693,4.69188e-24
0.0798512,-0.00460634,-9.36737e-05,1.77634e-24
0.0732206,-0.00465882,-8.32005e-05,3.98586e-25
0.0668756,-0.00470472,-7.32642e-05,-2.56776e-25
0.060806,-0.00474289,-6.38587e-05,-4.32561e-24
0.055002,-0.00477147,-5.49831e-05,3.32821e-25
0.0494546,-0.00478744,-4.66427e-05,1.99184e-24
0.0441557,-0.00478586,-3.88528e-05,-1.22027e-24
0.0390981,-0.00475841,-3.16411e-05,-3.25995e-24
0.0342763,-0.004691,-2.50513e-05,2.74601e-24
0.0296863,-0.00456091,-1.91459e-05,1.59171e-25
0.0253266,-0.00433703,-1.40134e-05,-2.86307e-24
0.0211986,-0.00399172,-9.75661e-06,6.28506e-24
0.0173078,-0.00352274,-6.42749e-06,6.35273e-24
0.0136647,-0.00295987,-3.96342e-06,3.3555e-26
0.0102864,-0.00234549,-2.22612e-06,-1.99201e-24
0.00719736,-0.00171638,-1.07707e-06,4.37521e-25
0.00443049,-0.00110235,-3.98876e-07,3.09702e-25
0.00202579,-0.000530849,-8.3206e-08,-3.84998e-25
2.57848e-05,-3.15166e-13,-4.93996e-17,-2.28574e-34
2.57848e-05,0,0,0
