y,U_0,U_1,U_2
3.032,0.00312347,-1.99767e-07,2.71426e-27
3.02782,0.00622885,-3.49206e-07,4.67815e-26
3.02345,0.00929226,-1.82719e-07,2.9681e-26
3.01889,0.0121712,5.548e-07,-1.51833e-26
3.01413,0.0146932,2.04039e-06,-1.3179e-26
3.00916,0.0167899,4.39163e-06,-8.9845e-28
3.00397,0.018508,7.72004e-06,-4.39138e-24
2.99856,0.0199198,1.21044e-05,-5.8866e-25
2.99291,0.0210875,1.75606e-05,-2.80365e-24
2.98702,0.0220644,2.40354e-05,-6.60292e-24
2.98087,0.0228946,3.14251e-05,5.22873e-24
2.97447,0.0236144,3.95936e-05,5.24184e-24
2.96779,0.0242523,4.84215e-05,4.46487e-24
2.96083,0.024828,5.78032e-05,8.53827e-24
2.95359,0.0253547,6.76559e-05,-3.59871e-24
2.94605,0.0258422,7.79273e-05,-1.50006e-23
2.93819,0.0262976,8.85694e-05,-7.35684e-24
2.93002,0.0267264,9.95417e-05,6.58895e-24
2.92153,0.0271326,0.000110797,6.64352e-24
2.91269,0.0275198,0.000122273,2.4757e-30
2.90351,0.0278909,0.000133926,-1.40286e-29
2.89397,0.0282474,0.000145717,-6.45842e-30
2.88406,0.0285884,0.000157627,3.59319e-26
2.87378,0.0289121,0.000169665,1.14675e-23
2.86311,0.0292172,0.000181847,1.15465e-23
2.85204,0.029504,0.000194201,-2.17e-23
2.84057,0.0297741,0.000206775,-1.12248e-23
2.82868,0.0300283,0.00021958,1.05727e-23
2.81638,0.0302666,0.00023261,-1.05551e-23
2.80364,0.0304888,0.000245872,-4.2433e-25
2.79047,0.030695,0.000259377,2.0276e-23
2.77685,0.0308851,0.000273136,-9.6238e-24
2.76278,0.0310593,0.000287159,-1.02061e-23
2.74826,0.0312179,0.00030146,9.66272e-24
2.73327,0.0313612,0.000316053,-4.35485e-28
2.71782,0.0314897,0.000330949,8.45187e-26
2.70189,0.031604,0.000346164,8.47773e-26
2.68549,0.0317046,0.000361708,8.26057e-26
2.66862,0.0317923,0.000377596,8.2955e-26
2.65127,0.0318678,0.000393838,-7.07353e-28
2.63345,0.0319319,0.000410446,-6.66854e-28
2.61515,0.0319851,0.000427428,7.77448e-26
2.59638,0.0320283,0.000444793,8.20578e-28
2.57715,0.0320619,0.000462549,-1.81526e-23
2.55745,0.0320867,0.000480699,-7.00144e-25
2.5373,0.0321032,0.000499249,1.7571e-23
2.51669,0.0321118,0.000518201,1.14086e-28
2.49565,0.0321129,0.000537553,-1.56652e-25
2.47418,0.032107,0.000557304,2.25657e-27
2.4523,0.0320943,0.000577448,3.8064e-23
2.43001,0.0320751,0.000597979,3.97063e-23
2.40733,0.0320497,0.000618885,-7.58973e-23
2.38428,0.0320183,0.000640153,-3.94674e-23
2.36088,0.0319809,0.000661764,3.89602e-23
2.33714,0.0319378,0.000683695,9.52508e-27
2.31309,0.031889,0.000705918,-4.32004e-23
2.28875,0.0318345,0.0007284,4.33261e-23
2.26414,0.0317744,0.000751101,4.40852e-23
2.23928,0.0317087,0.000773975,-4.40922e-23
2.2142,0.0316372,0.000796971,-3.07787e-26
2.18893,0.03156,0.000820029,3.33791e-27
2.16349,0.0314767,0.000843084,2.32927e-25
2.13791,0.0313874,0.000866065,5.36659e-23
2.11222,0.0312918,0.000888898,1.37077e-24
2.08645,0.0311896,0.000911503,-5.3735e-23
2.06062,0.0310807,0.0009338,-8.21151e-29
2.03477,0.0309649,0.000955709,-1.21152e-28
2.00893,0.0308418,0.000977149,-6.66888e-29
1.98312,0.0307113,0.000998045,2.61279e-25
1.95738,0.0305732,0.00101832,3.99181e-26
1.93173,0.0304275,0.00103792,-3.19577e-25
1.9062,0.0302739,0.00105678,-1.44817e-22
1.88082,0.0301125,0.00107484,1.46884e-22
1.85562,0.0299434,0.00109206,1.5019e-22
1.83062,0.0297666,0.00110841,-3.10605e-22
1.80586,0.0295826,0.00112384,1.60342e-22
1.78135,0.0293915,0.00113835,1.65313e-22
1.75711,0.0291938,0.0011519,-1.65742e-22
1.73318,0.02899,0.00116449,-6.13208e-26
1.70957,0.0287807,0.0011761,1.53155e-27
1.6863,0.0285664,0.00118671,3.08843e-26
1.6634,0.0283479,0.00119633,1.92381e-22
1.64087,0.0281259,0.00120494,5.53315e-24
1.61873,0.0279011,0.00121253,-1.94098e-22
1.59701,0.0276744,0.00121909,2.04986e-22
1.5757,0.0274465,0.0012246,6.13676e-24
1.55483,0.0272181,0.00122905,-2.06587e-22
1.53439,0.0269901,0.00123241,2.62204e-27
1.51442,0.026763,0.00123467,2.03701e-25
1.49489,0.0265375,0.00123581,2.23492e-22
1.47584,0.0263143,0.00123579,6.96179e-24
1.45725,0.0260939,0.00123458,5.06373e-24
1.43914,0.0258767,0.00123216,-2.25535e-22
1.4215,0.0256632,0.0012285,-2.37757e-22
1.40433,0.0254535,0.00122357,-4.31626e-24
1.38764,0.0252481,0.00121735,-2.47675e-22
1.37143,0.025047,0.00120984,2.33259e-22
1.35568,0.0248503,0.00120101,4.89364e-22
1.34041,0.0246582,0.00119088,-2.43901e-22
1.3256,0.0244706,0.00117945,-5.0732e-22
1.31125,0.0242874,0.00116675,2.46738e-22
1.29736,0.0241085,0.0011528,5.15161e-22
1.28391,0.0239339,0.00113766,3.84191e-24
1.27091,0.0237635,0.00112137,-2.63786e-22
1.25834,0.0235969,0.00110399,-2.73423e-22
1.2462,0.0234342,0.00108559,2.75965e-22
1.23447,0.023275,0.00106624,2.79362e-22
1.22316,0.0231193,0.001046,7.10517e-24
1.21225,0.0229667,0.00102495,2.98773e-22
1.20173,0.0228171,0.00100317,-6.06195e-22
1.19159,0.0226703,0.000980718,-3.04391e-22
1.18182,0.0225261,0.000957665,3.15976e-22
1.17242,0.0223841,0.000934072,-3.38501e-22
1.16337,0.0222442,0.000909994,6.65345e-24
1.15467,0.0221059,0.00088548,3.51292e-22
1.1463,0.0219691,0.000860573,-3.81588e-25
1.13825,0.0218333,0.000835305,-3.68176e-26
1.13052,0.0216981,0.000809699,4.22907e-22
1.1231,0.0215629,0.000783768,-1.73416e-23
1.11596,0.0214273,0.000757511,-4.46303e-22
1.10912,0.0212905,0.000730913,1.69019e-25
1.10255,0.0211517,0.000703945,-4.58508e-25
1.09624,0.0210099,0.000676558,-5.82638e-22
1.0902,0.0208638,0.000648687,-5.8907e-22
1.0844,0.020712,0.000620245,-6.68958e-24
1.07884,0.0205524,0.000591124,7.38073e-22
1.07351,0.0203825,0.000561195,7.45199e-22
1.06841,0.0201994,0.000530309,1.50352e-24
1.06352,0.0199988,0.000498298,8.47121e-25
1.05884,0.0197755,0.000464986,-3.09049e-24
1.05435,0.0195228,0.000430197,1.00445e-24
1.05006,0.0192315,0.000393767,4.31788e-24
1.04595,0.0188901,0.000355578,1.66623e-21
1.04202,0.0184836,0.000315582,-2.33306e-22
1.03825,0.0179931,0.000273856,-1.90758e-21
1.03465,0.0173954,0.000230665,-2.86714e-24
1.03121,0.016664,0.000186543,7.99996e-25
1.02792,0.0157709,0.000142393,5.02474e-24
1.02477,0.0146908,9.95616e-05,1.35035e-25
1.02176,0.0134078,5.98173e-05,8.01151e-25
1.01888,0.0119239,2.5166e-05,2.54969e-21
1.01613,0.0102688,-2.51142e-06,-3.0905e-21
1.0135,0.0085091,-2.18914e-05,-2.64216e-21
1.01098,0.00674326,-3.26022e-05,3.02482e-21
1.00858,0.00507076,-3.53761e-05,3.06387e-21
1.00629,0.00355463,-3.17299e-05,5.39051e-23
1.00409,0.00221306,-2.34383e-05,-7.52121e-23
1.002,0.00103728,-1.23072e-05,1.02063e-21
1,0,0,0
