# vtk DataFile Version 2.0
track0
ASCII
DATASET POLYDATA
POINTS 12075 float
-0.0205 0.001 1e-05
-0.02052 0.000999985 1e-05
-0.02054 0.000999974 1e-05
-0.02056 0.000999965 1e-05
-0.02058 0.000999959 1e-05
-0.0206 0.000999956 1e-05
-0.0205 0.00367778 1e-05
-0.02052 0.00367778 1e-05
-0.02054 0.00367777 1e-05
-0.02056 0.00367777 1e-05
-0.02058 0.00367777 1e-05
-0.0206 0.00367777 1e-05
-0.0205 0.00635556 1e-05
-0.02052 0.00635555 1e-05
-0.02054 0.00635555 1e-05
-0.02056 0.00635555 1e-05
-0.02058 0.00635555 1e-05
-0.0206 0.00635555 1e-05
-0.0205 0.00903333 1e-05
-0.02052 0.00903333 1e-05
-0.02054 0.00903333 1e-05
-0.02056 0.00903333 1e-05
-0.02058 0.00903333 1e-05
-0.0206 0.00903333 1e-05
-0.0205 0.0117111 1e-05
-0.02052 0.0117111 1e-05
-0.02054 0.0117111 1e-05
-0.02056 0.0117111 1e-05
-0.02058 0.0117111 1e-05
-0.0206 0.0117111 1e-05
-0.0205 0.0143889 1e-05
-0.02052 0.0143889 1e-05
-0.02054 0.0143889 1e-05
-0.02056 0.0143889 1e-05
-0.02058 0.0143889 1e-05
-0.0206 0.0143889 1e-05
-0.0205 0.0170667 1e-05
-0.02052 0.0170667 1e-05
-0.02054 0.0170667 1e-05
-0.02056 0.0170667 1e-05
-0.02058 0.0170667 1e-05
-0.0206 0.0170667 1e-05
-0.0205 0.0197444 1e-05
-0.02052 0.0197444 1e-05
-0.02054 0.0197444 1e-05
-0.02056 0.0197444 1e-05
-0.02058 0.0197444 1e-05
-0.0206 0.0197444 1e-05
-0.0205 0.0224222 1e-05
-0.02052 0.0224222 1e-05
-0.02054 0.0224222 1e-05
-0.02056 0.0224222 1e-05
-0.02058 0.0224222 1e-05
-0.0206 0.0224222 1e-05
-0.0205 0.0251 1e-05
-0.02052 0.0250998 1e-05
-0.02054 0.0250997 1e-05
-0.02056 0.0250995 1e-05
-0.02058 0.0250995 1e-05
-0.0206 0.0250994 1e-05
-0.0205 0.001 1e-05
-0.0202034 0.00100022 1e-05
-0.0199069 0.00100067 1e-05
-0.0196103 0.00100132 1e-05
-0.0193137 0.00100219 1e-05
-0.0190172 0.00100326 1e-05
-0.0187132 0.00100467 1e-05
-0.0184093 0.00100589 1e-05
-0.0181054 0.0010071 1e-05
-0.0178015 0.00100832 1e-05
-0.0174976 0.00100954 1e-05
-0.0172058 0.00101083 1e-05
-0.016914 0.00101194 1e-05
-0.0166222 0.00101304 1e-05
-0.0163305 0.00101414 1e-05
-0.0160387 0.00101524 1e-05
-0.0157586 0.00101638 1e-05
-0.0154784 0.00101746 1e-05
-0.0151983 0.00101858 1e-05
-0.0149182 0.00101973 1e-05
-0.0146381 0.00102092 1e-05
-0.014376 0.0010221 1e-05
-0.0141139 0.00102328 1e-05
-0.0138518 0.0010245 1e-05
-0.0135898 0.00102574 1e-05
-0.0133685 0.00102682 1e-05
-0.0133535 0.00102689 1e-05
-0.0133385 0.00102697 1e-05
-0.0133235 0.00102704 1e-05
-0.0133085 0.00102712 1e-05
-0.0132934 0.00102719 1e-05
-0.0130353 0.00102848 1e-05
-0.0127771 0.00102979 1e-05
-0.0125189 0.00103111 1e-05
-0.0122607 0.00103245 1e-05
-0.0120025 0.00103381 1e-05
-0.0117547 0.00103512 1e-05
-0.0115068 0.00103644 1e-05
-0.0112589 0.00103777 1e-05
-0.0110111 0.0010391 1e-05
-0.0107632 0.00104043 1e-05
-0.0105252 0.00104172 1e-05
-0.0102873 0.001043 1e-05
-0.0100493 0.00104429 1e-05
-0.00981133 0.00104557 1e-05
-0.00957337 0.00104686 1e-05
-0.00934491 0.00104809 1e-05
-0.00911645 0.00104932 1e-05
-0.00888799 0.00105055 1e-05
-0.00865954 0.00105178 1e-05
-0.00843108 0.001053 1e-05
-0.00821175 0.00105417 1e-05
-0.00799242 0.00105534 1e-05
-0.00777309 0.00105651 1e-05
-0.00755376 0.00105767 1e-05
-0.00733443 0.00105883 1e-05
-0.00712387 0.00105994 1e-05
-0.0069133 0.00106104 1e-05
-0.00670273 0.00106215 1e-05
-0.00649216 0.00106325 1e-05
-0.0062816 0.00106435 1e-05
-0.00607944 0.00106539 1e-05
-0.00587729 0.00106644 1e-05
-0.00567514 0.00106749 1e-05
-0.00547298 0.00106853 1e-05
-0.00527083 0.00106958 1e-05
-0.00507675 0.00107057 1e-05
-0.00488267 0.00107157 1e-05
-0.0046886 0.00107256 1e-05
-0.00449452 0.00107356 1e-05
-0.00430044 0.00107455 1e-05
-0.00411412 0.0010755 1e-05
-0.0039278 0.00107645 1e-05
-0.00374147 0.00107741 1e-05
-0.00355515 0.00107836 1e-05
-0.00336883 0.00107932 1e-05
-0.00318995 0.00108023 1e-05
-0.00301107 0.00108116 1e-05
-0.00283219 0.00108209 1e-05
-0.00265331 0.00108302 1e-05
-0.00247443 0.00108396 1e-05
-0.0023027 0.00108487 1e-05
-0.00213097 0.00108578 1e-05
-0.00195924 0.00108671 1e-05
-0.00178751 0.00108765 1e-05
-0.00161577 0.0010886 1e-05
-0.0014509 0.00108951 1e-05
-0.00128603 0.00109045 1e-05
-0.00112116 0.00109141 1e-05
-0.00095629 0.00109239 1e-05
-0.000791418 0.00109339 1e-05
-0.000633135 0.00109438 1e-05
-0.000474851 0.0010954 1e-05
-0.000316568 0.00109645 1e-05
-0.000158285 0.00109753 1e-05
0 0.00109864 1e-05
0.000105677 0.00109939 1e-05
0.000211355 0.00110016 1e-05
0.000317032 0.00110093 1e-05
0.000422709 0.00110171 1e-05
0.000528387 0.0011025 1e-05
0.000634886 0.00110329 1e-05
0.000741385 0.00110407 1e-05
0.000847885 0.00110485 1e-05
0.000954384 0.00110562 1e-05
0.00106088 0.00110638 1e-05
0.00116821 0.00110713 1e-05
0.00127554 0.00110787 1e-05
0.00138286 0.0011086 1e-05
0.00149019 0.00110931 1e-05
0.00159752 0.00111 1e-05
0.00170568 0.00111068 1e-05
0.00181384 0.00111135 1e-05
0.001922 0.001112 1e-05
0.00203016 0.00111264 1e-05
0.00213833 0.00111325 1e-05
0.00224733 0.00111385 1e-05
0.00235633 0.00111445 1e-05
0.00246533 0.00111503 1e-05
0.00257434 0.00111559 1e-05
0.00268334 0.00111613 1e-05
0.00279319 0.00111666 1e-05
0.00290304 0.00111718 1e-05
0.00301289 0.00111769 1e-05
0.00312274 0.00111818 1e-05
0.00323259 0.00111866 1e-05
0.00334329 0.00111912 1e-05
0.003454 0.00111957 1e-05
0.0035647 0.00112001 1e-05
0.0036754 0.00112044 1e-05
0.00378611 0.00112085 1e-05
0.00389767 0.00112124 1e-05
0.00400924 0.00112162 1e-05
0.0041208 0.00112199 1e-05
0.00423237 0.00112235 1e-05
0.00434393 0.0011227 1e-05
0.00445636 0.00112302 1e-05
0.00456879 0.00112334 1e-05
0.00468123 0.00112364 1e-05
0.00479366 0.00112393 1e-05
0.00490609 0.00112421 1e-05
0.0050194 0.00112447 1e-05
0.0051327 0.00112472 1e-05
0.00524601 0.00112496 1e-05
0.00535932 0.00112519 1e-05
0.00547262 0.0011254 1e-05
0.00558681 0.00112559 1e-05
0.005701 0.00112578 1e-05
0.00581518 0.00112596 1e-05
0.00592937 0.00112612 1e-05
0.00604356 0.00112627 1e-05
0.00615863 0.0011264 1e-05
0.00627371 0.00112652 1e-05
0.00638878 0.00112664 1e-05
0.00650386 0.00112674 1e-05
0.00661893 0.00112683 1e-05
0.0067349 0.0011269 1e-05
0.00685087 0.00112697 1e-05
0.00696684 0.00112702 1e-05
0.00708281 0.00112706 1e-05
0.00719878 0.00112709 1e-05
0.00731565 0.00112711 1e-05
0.00743252 0.00112711 1e-05
0.00754939 0.00112711 1e-05
0.00766626 0.00112709 1e-05
0.00778313 0.00112706 1e-05
0.00790091 0.00112702 1e-05
0.00801869 0.00112697 1e-05
0.00813647 0.0011269 1e-05
0.00825425 0.00112683 1e-05
0.00837203 0.00112674 1e-05
0.00843732 0.00112668 1e-05
0.00850261 0.00112663 1e-05
0.00856791 0.00112657 1e-05
0.0086332 0.0011265 1e-05
0.00869601 0.00112643 1e-05
0.00874991 0.00112638 1e-05
0.00880381 0.00112631 1e-05
0.00885771 0.00112625 1e-05
0.00891161 0.00112618 1e-05
0.00896551 0.00112612 1e-05
0.00908513 0.00112596 1e-05
0.00920475 0.00112579 1e-05
0.00932437 0.00112561 1e-05
0.00944398 0.00112541 1e-05
0.0095636 0.00112521 1e-05
0.00968415 0.00112499 1e-05
0.0098047 0.00112476 1e-05
0.00992525 0.00112452 1e-05
0.0100458 0.00112427 1e-05
0.0101663 0.001124 1e-05
0.0102878 0.00112372 1e-05
0.0104093 0.00112343 1e-05
0.0105308 0.00112313 1e-05
0.0106523 0.00112281 1e-05
0.0107738 0.00112249 1e-05
0.0108962 0.00112214 1e-05
0.0110186 0.00112179 1e-05
0.0111411 0.00112143 1e-05
0.0112635 0.00112105 1e-05
0.0113859 0.00112066 1e-05
0.0115093 0.00112026 1e-05
0.0116327 0.00111984 1e-05
0.0117561 0.00111941 1e-05
0.0118795 0.00111897 1e-05
0.0120028 0.00111852 1e-05
0.0121272 0.00111805 1e-05
0.0122515 0.00111757 1e-05
0.0123759 0.00111708 1e-05
0.0125002 0.00111658 1e-05
0.0126245 0.00111606 1e-05
0.0127498 0.00111552 1e-05
0.0128752 0.00111498 1e-05
0.0130005 0.00111442 1e-05
0.0131258 0.00111385 1e-05
0.0132511 0.00111327 1e-05
0.0133774 0.00111267 1e-05
0.0135036 0.00111205 1e-05
0.0136299 0.00111143 1e-05
0.0137562 0.00111079 1e-05
0.0138825 0.00111014 1e-05
0.0140098 0.00110947 1e-05
0.014137 0.00110879 1e-05
0.0142643 0.00110809 1e-05
0.0143915 0.00110738 1e-05
0.0145188 0.00110666 1e-05
0.0146471 0.00110593 1e-05
0.0147753 0.00110517 1e-05
0.0149036 0.00110441 1e-05
0.0150318 0.00110362 1e-05
0.0151601 0.00110283 1e-05
0.0152893 0.00110203 1e-05
0.0154186 0.0011012 1e-05
0.0155478 0.00110036 1e-05
0.0156771 0.00109951 1e-05
0.0158063 0.00109864 1e-05
0.0159366 0.00109777 1e-05
0.0160668 0.00109687 1e-05
0.0161971 0.00109595 1e-05
0.0163273 0.00109502 1e-05
0.0164576 0.00109408 1e-05
0.0165889 0.00109313 1e-05
0.0167201 0.00109215 1e-05
0.0168514 0.00109116 1e-05
0.0169827 0.00109015 1e-05
0.0171139 0.00108913 1e-05
0.0172462 0.0010881 1e-05
0.0173785 0.00108705 1e-05
0.0175108 0.00108597 1e-05
0.0176431 0.00108488 1e-05
0.0177754 0.00108378 1e-05
0.0179087 0.00108268 1e-05
0.018042 0.00108154 1e-05
0.0181753 0.00108038 1e-05
0.0183087 0.0010792 1e-05
0.018442 0.00107802 1e-05
0.0185763 0.00107683 1e-05
0.0187107 0.00107561 1e-05
0.018845 0.00107436 1e-05
0.0189794 0.00107309 1e-05
0.0191137 0.00107182 1e-05
0.0192491 0.00107055 1e-05
0.0193845 0.00106924 1e-05
0.0195199 0.0010679 1e-05
0.0196553 0.00106653 1e-05
0.0197907 0.00106518 1e-05
0.0199272 0.00106382 1e-05
0.0200636 0.00106242 1e-05
0.0202001 0.00106098 1e-05
0.0203365 0.00105952 1e-05
0.020473 0.00105807 1e-05
0.0206105 0.00105661 1e-05
0.020748 0.00105512 1e-05
0.0208855 0.00105359 1e-05
0.021023 0.00105204 1e-05
0.0211606 0.00105049 1e-05
0.0212991 0.00104894 1e-05
0.0214377 0.00104734 1e-05
0.0215763 0.00104571 1e-05
0.0217149 0.00104406 1e-05
0.0218535 0.00104242 1e-05
0.0219931 0.00104076 1e-05
0.0221328 0.00103907 1e-05
0.0222724 0.00103733 1e-05
0.0224121 0.00103557 1e-05
0.0225517 0.00103382 1e-05
0.0226925 0.00103206 1e-05
0.0228332 0.00103025 1e-05
0.022974 0.0010284 1e-05
0.0231147 0.00102654 1e-05
0.0232555 0.00102467 1e-05
0.0233973 0.0010228 1e-05
0.0235391 0.00102088 1e-05
0.023681 0.00101892 1e-05
0.0238228 0.00101694 1e-05
0.0239647 0.00101496 1e-05
0.0241076 0.00101296 1e-05
0.0242505 0.00101093 1e-05
0.0243935 0.00100885 1e-05
0.0245364 0.00100675 1e-05
0.0246794 0.00100465 1e-05
0.0248234 0.00100254 1e-05
0.0249675 0.00100037 1e-05
0.0251115 0.000998176 1e-05
0.0252556 0.000995958 1e-05
[...]
POINT_DATA 12075
 FIELD attributes 2
p 1 12075 float
-5.68628 -5.68296 -5.67965 -5.67633 -5.67302 -5.6697
-5.83925 -5.83923 -5.8392 -5.83918 -5.83916 -5.83914
-6.01464 -6.01452 -6.0144 -6.01427 -6.01415 -6.01405
-6.10963 -6.10958 -6.10952 -6.10947 -6.10942 -6.10936
-6.15646 -6.15634 -6.15623 -6.15612 -6.156 -6.15589
-6.16457 -6.16441 -6.16425 -6.16409 -6.16393 -6.16376
-6.13898 -6.13891 -6.13883 -6.13876 -6.13869 -6.13862
-6.07038 -6.07034 -6.0703 -6.07026 -6.07022 -6.07018
-5.94968 -5.94968 -5.94969 -5.9497 -5.9497 -5.94971
-3.73728 -3.75661 -3.77581 -3.79488 -3.81382 -3.83262
-5.68628 -5.68554 -5.6819 -5.67818 -5.67438 -5.66597 -5.67974 -5.69462 -5.7095 -5.72437 -5.74869 -5.7703 -5.80007 -5.82984 -5.85962 -5.89219 -5.90764 -5.92912 -5.95061 -5.97209 -5.99519 -6.0137 -6.03421 -6.05473 -6.07525 -6.09257 -6.09374 -6.09491 -6.09609 -6.09726 -6.09842 -6.11971 -6.141 -6.16229 -6.18358 -6.20459 -6.22288 -6.24097 -6.25907 -6.27716 -6.29467 -6.30971 -6.32445 -6.33919 -6.35393 -6.3681 -6.38112 -6.39387 -6.40662 -6.41936 -6.43164 -6.44339 -6.45483 -6.46628 -6.47772 -6.4887 -6.49928 -6.50948 -6.51967 -6.52987 -6.53959 -6.54898 -6.55796 -6.56694 -6.57592 -6.58449 -6.59276 -6.60053 -6.60829 -6.61606 -6.62345 -6.63059 -6.63721 -6.64383 -6.65045 -6.65692 -6.66306 -6.66828 -6.6735 -6.67873 -6.68392 -6.68931 -6.69453 -6.69975 -6.70497 -6.71153 -6.71873 -6.72462 -6.73051 -6.7364 -6.74379 -6.75504 -6.77168 -6.78832 -6.80496 -6.82698 -6.85099 -6.88241 -6.91384 -6.94526 -6.97648 -7.00629 -7.03786 -7.06944 -7.10102 -7.12808 -7.14879 -7.16866 -7.18853 -7.2084 -7.22656 -7.24011 -7.25264 -7.26516 -7.2777 -7.28997 -7.30091 -7.31032 -7.31972 -7.32913 -7.33765 -7.34689 -7.35443 -7.36197 -7.36951 -7.37563 -7.38293 -7.38862 -7.39431 -7.4 -7.40428 -7.40939 -7.4132 -7.41701 -7.42082 -7.42366 -7.42693 -7.42921 -7.43148 -7.43376 -7.43553 -7.43753 -7.43877 -7.44001 -7.44125 -7.44228 -7.4437 -7.44452 -7.44534 -7.44617 -7.44686 -7.44813 -7.44892 -7.44972 -7.45051 -7.45113 -7.45228 -7.45304 -7.45379 -7.45455 -7.45512 -7.45604 -7.45666 -7.45728 -7.4579 -7.45841 -7.45922 -7.45988 -7.46053 -7.46119 -7.46181 -7.4624 -7.46295 -7.4635 -7.46405 -7.46458 -7.46504 -7.46549 -7.46594 -7.46639 -7.46703 -7.4683 -7.46975 -7.4712 -7.47265 -7.47471 -7.47598 -7.4778 -7.47963 -7.48145 -7.48428 -7.48549 -7.48761 -7.48973 -7.49185 -7.49533 -7.49653 -7.49895 -7.50137 -7.50379 -7.5079 -7.50917 -7.51192 -7.51467 -7.51742 -7.52212 -7.52357 -7.52669 -7.52981 -7.53294 -7.53819 -7.53994 -7.54347 -7.54699 -7.55051 -7.55626 -7.55841 -7.56234 -7.56626 -7.57019 -7.57634 -7.57894 -7.58323 -7.58753 -7.59184 -7.59826 -7.6014 -7.60594 -7.61055 -7.61539 -7.62176 -7.6255 -7.63017 -7.63505 -7.64029 -7.6466 -7.65084 -7.65567 -7.66076 -7.6663 -7.67255 -7.67723 -7.68223 -7.68751 -7.69326 -7.69946 -7.70453 -7.70975 -7.7152 -7.72111 -7.72728 -7.73267 -7.73812 -7.74371 -7.74966 -7.75571 -7.76128 -7.76686 -7.77249 -7.77836 -7.78424 -7.78986 -7.79548 -7.80112 -7.80688 -7.81265 -7.81827 -7.82389 -7.8295 -7.83515 -7.8408 -7.84636 -7.85193 -7.85744 -7.86292 -7.8684 -7.87382 -7.87923 -7.88457 -7.88982 -7.89508 -7.90026 -7.90544 -7.91054 -7.91552 -7.92049 -7.92538 -7.93028 -7.9351 -7.93976 -7.94441 -7.94895 -7.9535 -7.95799 -7.96229 -7.96657 -7.97071 -7.97483 -7.97892 -7.98284 -7.98669 -7.99035 -7.994 -7.99762 -8.00111 -8.0045 -8.00765 -8.01077 -8.01388 -8.01691 -8.01979 -8.02243 -8.02501 -8.02759 -8.03013 -8.03247 -8.03461 -8.0366 -8.03859 -8.04058 -8.04226 -8.04379 -8.04511 -8.04642 -8.04774 -8.04876 -8.04953 -8.05009 -8.05065 -8.05121 -8.05155 -8.05145 -8.0512 -8.05096 -8.05072 -8.05038 -8.04939 -8.04834 -8.04729 -8.04624 -8.04527 -8.04524 -8.04521 -8.04518 -8.04515 -8.04512 -8.04326 -8.0414 -8.03954 -8.03769 -8.03575 -8.03314 -8.03042 -8.0277 -8.02498 -8.02209 -8.01874 -8.01515 -8.01157 -8.00799 -8.00414 -8.00001 -7.99553 -7.99106 -7.98659 -7.98175 -7.97677 -7.97142 -7.96603 -7.96055 -7.95479 -7.94888 -7.94273 -7.93642 -7.92992 -7.92324 -7.91638 -7.9094 -7.90212 -7.89453 -7.88686 -7.87896 -7.87107 -7.86275 -7.85408 -7.84542 -7.83647 -7.82753 -7.81826 -7.80868 -7.79911 -7.78917 -7.77925 -7.7691 -7.75868 -7.74827 -7.73742 -7.72659 -7.71559 -7.70439 -7.69318 -7.68144 -7.66968 -7.65785 -7.64595 -7.63401 -7.62141 -7.60882 -7.59624 -7.58366 -7.57108 -7.55772 -7.54445 -7.5312 -7.51795 -7.50478 -7.49078 -7.47692 -7.46306 -7.44921 -7.43545 -7.42096 -7.40658 -7.39221 -7.37785 -7.3635 -7.36159 -7.3597 -7.35781 -7.35592 -7.35404 -7.34117 -7.3283 -7.31543 -7.30257 -7.28976 -7.27456 -7.25945 -7.24435 -7.22926 -7.21436 -7.19873 -7.1834 -7.16807 -7.15278 -7.13788 -7.12197 -7.10646 -7.09109 -7.076 -7.06125 -7.04536 -7.02968 -7.01446 -6.99988 -6.98543 -6.96971 -6.954 -6.93914 -6.92513 -6.91111 -6.8957 -6.8803 -6.86593 -6.85261 -6.8393 -6.82446 -6.80964 -6.7961 -6.78354 -6.77108 -6.75701 -6.74353 -6.73091 -6.71881 -6.70741 -6.69431 -6.68246 -6.67093 -6.6594 -6.64912 -6.63747 -6.62717 -6.61688 -6.60659 -6.59698 -6.58734 -6.57843 -6.56951 -6.5606 -6.5517 -6.5515 -6.55132 -6.55113 -6.55095 -6.55077 -6.54347 -6.53617 -6.52887 -6.52157 -6.51505 -6.50844 -6.50262 -6.49681 -6.49099 -6.48682 -6.48116 -6.47718 -6.4732 -6.46962 -6.46773 -6.46387 -6.46106 -6.45901 -6.45819 -6.45824 -6.45635 -6.45468 -6.45462 -6.45655 -6.45852 -6.45863 -6.45874 -6.46075 -6.46464 -6.46851 -6.4706 -6.4727 -6.47657 -6.48233 -6.48809 -6.49218 -6.49637 -6.50219 -6.50954 -6.51714 -6.5232 -6.52989 -6.53754 -6.54599 -6.55538 -6.56341 -6.57242 -6.58179 -6.59132 -6.60232 -6.61214 -6.62312 -6.63409 -6.64504 -6.65719 -6.66894 -6.68135 -6.69374 -6.70613 -6.71916 -6.73255 -6.74622 -6.75988 -6.77353 -6.78736 -6.79472 -6.80214 -6.80955 -6.81696 -6.8248 -6.83199 -6.83919 -6.84638 -6.85357 -6.8608 -6.87617 -6.89168 -6.90718 -6.92267 -6.93823 -6.95394 -6.97002 -6.98608 -7.00214 -7.01816 -7.03398 -7.05028 -7.06658 -7.08287 -7.09891 -7.11462 -7.13077 -7.14693 -7.16307 -7.17864 -7.19395 -7.20957 -7.2252 -7.24071 -7.25552 -7.27022 -7.28497 -7.29973 -7.31414 -7.32786 -7.34158 -7.35524 -7.36884 -7.3818 -7.39418 -7.40669 -7.41908 -7.43125 -7.44236 -7.45308 -7.46402 -7.4749 -7.48534 -7.49426 -7.50306 -7.51218 -7.5213 -7.52948 -7.53596 -7.54245 -7.54934 -7.55623 -7.56173 -7.56556 -7.56941 -7.57374 -7.57807 -7.58049 -7.58125 -7.58201 -7.58334 -7.58467 -7.58362 -7.58095 -7.57829 -7.57627 -7.57367 -7.56881 -7.5628 -7.55625 -7.55043 -7.54297 -7.53409 -7.52465 -7.51385 -7.50384 -7.49085 -7.47754 -7.46422 -7.44909 -7.43342 -7.41527 -7.39711 -7.37894 -7.36001 -7.34762 -7.33424 -7.32084 -7.30745 -7.29574 -7.28563 -7.27552 -7.26541 -7.25531 -7.24442 -7.21669 -7.18829 -7.15989 -7.1315 -7.10027 -7.0685 -7.03418 -6.99986 -6.96446 -6.92594 -6.8883 -6.84962 -6.80903 -6.76471 -6.7197 -6.67559 -6.63147 -6.58356 -6.5318 -6.47998 -6.42904 -6.3772 -6.32154 -6.26424 -6.20535 -6.14734 -6.08477 -6.02189 -5.959 -5.89473 -5.87349 -5.85092 -5.82835 -5.80577 -5.78453 -5.7375 -5.69048 -5.64347 -5.59646 -5.54643 -5.473 -5.39671 -5.32044 -5.24186 -5.16014 -5.0796 -4.99906 -4.9143 -4.82525 -4.73594 -4.64777 -4.55774 -4.46432 -4.37074 -4.27389 -4.21928 -4.16189 -4.10431 -4.04673 -3.99434 -3.95072 -3.90711 -3.8635 -3.81972 -3.77364 -3.66985 -3.56356 -3.4573 -3.34798 -3.23601 -3.12545 -3.01492 -2.90057 -2.78228 -2.66345 -2.56634 -2.46624 -2.36522 -2.2642 -2.17491 -2.15167 -2.12843 -2.10518 -2.0817 -2.05748 -1.93221 -1.80583 -1.6795 -1.55083 -1.4193 -1.28929 -1.15933 -1.02588 -0.890673 -0.753945 -0.684305 -0.613633 -0.542226 -0.47083 -0.404093 -0.336521 -0.268966 -0.201429 -0.133178 -0.063665 0.0762386 0.216562 0.358182 0.502205 0.647295 0.774406 0.902408 1.03137 1.16028 1.27613 1.29553 1.31492 1.33431 1.35386 1.37357 1.52033 1.66743 1.81445 1.96248 2.1121 2.26028 2.40861 2.55727 2.70585 2.8508 2.85179 2.85278 2.85377 2.85477 2.85576 3.0049 3.15395 3.3029 3.45169 3.60179 3.74713 3.89211 4.03639 4.18057 4.31223 4.31841 4.32459 4.33077 4.33693 4.34307 4.49033 4.63744 4.78446 4.93018 5.07691 5.19656 5.31572 5.43341 5.55105 5.66157 5.68887 5.71616 5.74346 5.77046 5.79742 5.93976 6.08158 6.22298 6.36197 6.50214 6.5853 6.66808 6.74929 6.83047 6.90897 6.96497 7.02095 7.07693 7.13189 7.18673 7.32124 7.45568 7.58782 7.71773 7.84846 7.89348 7.93828 7.98187 8.02546 8.06855 8.15299 8.23742 8.32183 8.40371 8.48546 8.60821 8.73048 8.84852 8.96656 9.08277 9.08515 9.08753 9.08991 9.0922 9.0945 9.21253 9.33043 9.44833 9.56167 9.67475 9.74059 9.80621 9.86917 9.93215 9.9956 10.0421 10.0885 10.135 10.1796 10.224 10.3306 10.4372 10.5404 10.6416 10.742 10.7619 10.7817 10.8006 10.8195 10.8386 10.9181 10.9978 11.0774 11.1537 11.2291 11.3093 11.389 11.4653 11.5417 11.6225 11.6351 11.6477 11.6603 11.6724 11.6844 11.7721 11.8589 11.9455 12.0281 12.1098 12.161 12.2117 12.2603 12.309 12.3608 12.3901 12.4194 12.4488 12.4771 12.5049 12.5806 12.6564 12.73 12.8011 12.8714 12.912 12.9519 12.9905 13.0291 13.0708 13.0991 13.1274 13.1556 13.1831 13.2099 13.2744 13.3388 13.4017 13.4623 13.5221 13.5708 13.6182 13.6645 13.7108 13.7635 13.7726 13.7817 13.7907 13.7996 13.8083 13.8622 13.9157 13.9691 14.021 14.0715 14.1211 14.1706 14.218 14.2649 14.311 14.3379 14.3639 14.3895 14.4152 14.4439 14.4611 14.4784 14.4956 14.5127 14.5291 14.57 14.6102 14.6505 14.6897 14.7279 14.765 14.802 14.8378 14.8727 14.9074 14.9409 14.9734 15.0055 15.0375 15.0692 15.0788 15.0881 15.0974 15.1067 15.1167 15.1366 15.1566 15.1765 15.1964 15.2156 15.2425 15.2691 15.2957 15.3219 15.3474 15.3716 15.3957 15.4194 15.4424 15.4653 15.487 15.5086 15.5294 15.5501 15.5706 15.59 15.6088 15.6274 15.646 15.6645 15.6815 15.6981 15.7148 15.7314 15.7479 15.7494 15.751 15.7525 15.754 15.7555 15.769 15.7825 15.796 15.8094 15.8227 15.836 15.8493 15.8627 15.876 15.889 15.9007 15.9125 15.9243 15.936 15.9476 15.9579 15.9682 15.9787 15.989 15.9994 16.0084 16.0175 16.0266 16.0358 16.045 16.053 16.0609 16.0689 16.0771 16.0852 16.0922 16.0993 16.1063 16.1135 16.1207 16.1269 16.1332 16.1394 16.1457 16.1521 16.1577 16.1632 16.1688 16.1743 16.1801 16.1851 16.1902 16.1952 16.2002 16.2054 16.21 16.2147 16.2194 16.224 16.2288 16.2332 16.2377 16.2422 16.2467 16.2512 16.2543 16.2574 16.2606 16.2637 16.2674 16.2687 16.2701 16.2714 16.2727 16.274 16.2789 16.2839 16.2888 16.2937 16.2988 16.3044 16.3101 16.3159 16.3216 16.3277 16.3344 16.3412 16.348 16.3548 16.3622 16.3707 16.3795 16.3883 16.3971 16.4075 16.4177 16.4258 16.4338 16.4418 16.4501 16.459 16.4687 16.4782 16.4877 16.4998 16.5032 16.4982 16.4928 16.4871 16.4577 16.4203 16.3822 16.344 16.3033 16.2583 16.2109 16.1659 16.1253 16.0883 16.0522 16.0142 15.9762 15.9386 15.9013 15.864 15.8243 15.7846 15.7427 15.6985 15.6543 15.6074 15.5605 15.5124 15.4633 15.4142 15.3623 15.3102 15.2575 15.2043 15.1511 15.0949 15.0382 14.9809 14.9231 14.8646 14.8032 14.7407 14.6777 14.6144 14.5499 14.4822 14.4128 14.3433 14.2738 14.2029 14.1279 14.0512 13.9746 13.898 13.8201 13.7368 13.6522 13.5676 13.483 13.3977 13.305 13.2115 13.118 13.0245 12.9308 12.899 12.867 12.835 12.8029 12.7688 12.6978 12.6269 12.5559 12.4849 12.4133 12.2992 12.1845 12.0697 11.9549 11.8385 11.7128 11.5851 11.4574 11.3297 11.1992 11.0602 10.9176 10.775 10.6324 10.4853 10.3311 10.1719 10.0127 9.85345 9.68837 9.51771 9.33873 9.15937 8.97871 8.79044 8.59606 8.3974 8.19737 7.9955 7.78974 7.57722 7.35409 7.12299 6.88236 6.63223 6.3738 6.11843 5.86788 5.62262 5.38002 5.12923 4.86369 4.54338 4.16178 3.76931 3.36304 2.96101 2.67323 2.49848 2.32557 2.14636 1.96728 1.49796 0.748448 0