# vtk DataFile Version 2.0
track0
ASCII
DATASET POLYDATA
POINTS 12075 float
-0.0205 0.001 1e-05
-0.02052 0.000999985 1e-05
-0.02054 0.000999974 1e-05
-0.02056 0.000999965 1e-05
-0.02058 0.000999959 1e-05
-0.0206 0.000999956 1e-05
-0.0205 0.00367778 1e-05
-0.02052 0.00367778 1e-05
-0.02054 0.00367777 1e-05
-0.02056 0.00367777 1e-05
-0.02058 0.00367777 1e-05
-0.0206 0.00367777 1e-05
-0.0205 0.00635556 1e-05
-0.02052 0.00635555 1e-05
-0.02054 0.00635555 1e-05
-0.02056 0.00635555 1e-05
-0.02058 0.00635555 1e-05
-0.0206 0.00635555 1e-05
-0.0205 0.00903333 1e-05
-0.02052 0.00903333 1e-05
-0.02054 0.00903333 1e-05
-0.02056 0.00903333 1e-05
-0.02058 0.00903333 1e-05
-0.0206 0.00903333 1e-05
-0.0205 0.0117111 1e-05
-0.02052 0.0117111 1e-05
-0.02054 0.0117111 1e-05
-0.02056 0.0117111 1e-05
-0.02058 0.0117111 1e-05
-0.0206 0.0117111 1e-05
-0.0205 0.0143889 1e-05
-0.02052 0.0143889 1e-05
-0.02054 0.0143889 1e-05
-0.02056 0.0143889 1e-05
-0.02058 0.0143889 1e-05
-0.0206 0.0143889 1e-05
-0.0205 0.0170667 1e-05
-0.02052 0.0170667 1e-05
-0.02054 0.0170667 1e-05
-0.02056 0.0170667 1e-05
-0.02058 0.0170667 1e-05
-0.0206 0.0170667 1e-05
-0.0205 0.0197444 1e-05
-0.02052 0.0197444 1e-05
-0.02054 0.0197444 1e-05
-0.02056 0.0197444 1e-05
-0.02058 0.0197444 1e-05
-0.0206 0.0197444 1e-05
-0.0205 0.0224222 1e-05
-0.02052 0.0224222 1e-05
-0.02054 0.0224222 1e-05
-0.02056 0.0224222 1e-05
-0.02058 0.0224222 1e-05
-0.0206 0.0224222 1e-05
-0.0205 0.0251 1e-05
-0.02052 0.0250998 1e-05
-0.02054 0.0250997 1e-05
-0.02056 0.0250995 1e-05
-0.02058 0.0250995 1e-05
-0.0206 0.0250994 1e-05
-0.0205 0.001 1e-05
-0.0202034 0.00100022 1e-05
-0.0199069 0.00100067 1e-05
-0.0196103 0.00100132 1e-05
-0.0193137 0.00100219 1e-05
-0.0190172 0.00100326 1e-05
-0.0187132 0.00100467 1e-05
-0.0184093 0.00100589 1e-05
-0.0181054 0.0010071 1e-05
-0.0178015 0.00100832 1e-05
-0.0174976 0.00100954 1e-05
-0.0172058 0.00101083 1e-05
-0.016914 0.00101194 1e-05
-0.0166222 0.00101304 1e-05
-0.0163305 0.00101414 1e-05
-0.0160387 0.00101524 1e-05
-0.0157586 0.00101638 1e-05
-0.0154784 0.00101746 1e-05
-0.0151983 0.00101858 1e-05
-0.0149182 0.00101973 1e-05
-0.0146381 0.00102092 1e-05
-0.014376 0.0010221 1e-05
-0.0141139 0.00102328 1e-05
-0.0138518 0.0010245 1e-05
-0.0135898 0.00102574 1e-05
-0.0133685 0.00102682 1e-05
-0.0133535 0.00102689 1e-05
-0.0133385 0.00102697 1e-05
-0.0133235 0.00102704 1e-05
-0.0133085 0.00102712 1e-05
-0.0132934 0.00102719 1e-05
-0.0130353 0.00102848 1e-05
-0.0127771 0.00102979 1e-05
-0.0125189 0.00103111 1e-05
-0.0122607 0.00103245 1e-05
-0.0120025 0.00103381 1e-05
-0.0117547 0.00103512 1e-05
-0.0115068 0.00103644 1e-05
-0.0112589 0.00103777 1e-05
-0.0110111 0.0010391 1e-05
-0.0107632 0.00104043 1e-05
-0.0105252 0.00104172 1e-05
-0.0102873 0.001043 1e-05
-0.0100493 0.00104429 1e-05
-0.00981133 0.00104557 1e-05
-0.00957337 0.00104686 1e-05
-0.00934491 0.00104809 1e-05
-0.00911645 0.00104932 1e-05
-0.00888799 0.00105055 1e-05
-0.00865954 0.00105178 1e-05
-0.00843108 0.001053 1e-05
-0.00821175 0.00105417 1e-05
-0.00799242 0.00105534 1e-05
-0.00777309 0.00105651 1e-05
-0.00755376 0.00105767 1e-05
-0.00733443 0.00105883 1e-05
-0.00712387 0.00105994 1e-05
-0.0069133 0.00106104 1e-05
-0.00670273 0.00106215 1e-05
-0.00649216 0.00106325 1e-05
-0.0062816 0.00106435 1e-05
-0.00607944 0.00106539 1e-05
-0.00587729 0.00106644 1e-05
-0.00567514 0.00106749 1e-05
-0.00547298 0.00106853 1e-05
-0.00527083 0.00106958 1e-05
-0.00507675 0.00107057 1e-05
-0.00488267 0.00107157 1e-05
-0.0046886 0.00107256 1e-05
-0.00449452 0.00107356 1e-05
-0.00430044 0.00107455 1e-05
-0.00411412 0.0010755 1e-05
-0.0039278 0.00107645 1e-05
-0.00374147 0.00107741 1e-05
-0.00355515 0.00107836 1e-05
-0.00336883 0.00107932 1e-05
-0.00318995 0.00108023 1e-05
-0.00301107 0.00108116 1e-05
-0.00283219 0.00108209 1e-05
-0.00265331 0.00108302 1e-05
-0.00247443 0.00108396 1e-05
-0.0023027 0.00108487 1e-05
-0.00213097 0.00108578 1e-05
-0.00195924 0.00108671 1e-05
-0.00178751 0.00108765 1e-05
-0.00161577 0.0010886 1e-05
-0.0014509 0.00108951 1e-05
-0.00128603 0.00109045 1e-05
-0.00112116 0.00109141 1e-05
-0.00095629 0.00109239 1e-05
-0.000791418 0.00109339 1e-05
-0.000633135 0.00109438 1e-05
-0.000474851 0.0010954 1e-05
-0.000316568 0.00109645 1e-05
-0.000158285 0.00109753 1e-05
0 0.00109864 1e-05
0.000105677 0.00109939 1e-05
0.000211355 0.00110016 1e-05
0.000317032 0.00110093 1e-05
0.000422709 0.00110171 1e-05
0.000528387 0.0011025 1e-05
0.000634886 0.00110329 1e-05
0.000741385 0.00110407 1e-05
0.000847885 0.00110485 1e-05
0.000954384 0.00110562 1e-05
0.00106088 0.00110638 1e-05
0.00116821 0.00110713 1e-05
0.00127554 0.00110787 1e-05
0.00138286 0.0011086 1e-05
0.00149019 0.00110931 1e-05
0.00159752 0.00111 1e-05
0.00170568 0.00111068 1e-05
0.00181384 0.00111135 1e-05
0.001922 0.001112 1e-05
0.00203016 0.00111264 1e-05
0.00213833 0.00111325 1e-05
0.00224733 0.00111385 1e-05
0.00235633 0.00111445 1e-05
0.00246533 0.00111503 1e-05
0.00257434 0.00111559 1e-05
0.00268334 0.00111613 1e-05
0.00279319 0.00111666 1e-05
0.00290304 0.00111718 1e-05
0.00301289 0.00111769 1e-05
0.00312274 0.00111818 1e-05
0.00323259 0.00111866 1e-05
0.00334329 0.00111912 1e-05
0.003454 0.00111957 1e-05
0.0035647 0.00112001 1e-05
0.0036754 0.00112044 1e-05
0.00378611 0.00112085 1e-05
0.00389767 0.00112124 1e-05
0.00400924 0.00112162 1e-05
0.0041208 0.00112199 1e-05
0.00423237 0.00112235 1e-05
0.00434393 0.0011227 1e-05
0.00445636 0.00112302 1e-05
0.00456879 0.00112334 1e-05
0.00468123 0.00112364 1e-05
0.00479366 0.00112393 1e-05
0.00490609 0.00112421 1e-05
0.0050194 0.00112447 1e-05
0.0051327 0.00112472 1e-05
0.00524601 0.00112496 1e-05
0.00535932 0.00112519 1e-05
0.00547262 0.0011254 1e-05
0.00558681 0.00112559 1e-05
0.005701 0.00112578 1e-05
0.00581518 0.00112596 1e-05
0.00592937 0.00112612 1e-05
0.00604356 0.00112627 1e-05
0.00615863 0.0011264 1e-05
0.00627371 0.00112652 1e-05
0.00638878 0.00112664 1e-05
0.00650386 0.00112674 1e-05
0.00661893 0.00112683 1e-05
0.0067349 0.0011269 1e-05
0.00685087 0.00112697 1e-05
0.00696684 0.00112702 1e-05
0.00708281 0.00112706 1e-05
0.00719878 0.00112709 1e-05
0.00731565 0.00112711 1e-05
0.00743252 0.00112711 1e-05
0.00754939 0.00112711 1e-05
0.00766626 0.00112709 1e-05
0.00778313 0.00112706 1e-05
0.00790091 0.00112702 1e-05
0.00801869 0.00112697 1e-05
0.00813647 0.0011269 1e-05
0.00825425 0.00112683 1e-05
0.00837203 0.00112674 1e-05
0.00843732 0.00112668 1e-05
0.00850261 0.00112663 1e-05
0.00856791 0.00112657 1e-05
0.0086332 0.0011265 1e-05
0.00869601 0.00112643 1e-05
0.00874991 0.00112638 1e-05
0.00880381 0.00112631 1e-05
0.00885771 0.00112625 1e-05
0.00891161 0.00112618 1e-05
0.00896551 0.00112612 1e-05
0.00908513 0.00112596 1e-05
0.00920475 0.00112579 1e-05
0.00932437 0.00112561 1e-05
0.00944398 0.00112541 1e-05
0.0095636 0.00112521 1e-05
0.00968415 0.00112499 1e-05
0.0098047 0.00112476 1e-05
0.00992525 0.00112452 1e-05
0.0100458 0.00112427 1e-05
0.0101663 0.001124 1e-05
0.0102878 0.00112372 1e-05
0.0104093 0.00112343 1e-05
0.0105308 0.00112313 1e-05
0.0106523 0.00112281 1e-05
0.0107738 0.00112249 1e-05
0.0108962 0.00112214 1e-05
0.0110186 0.00112179 1e-05
0.0111411 0.00112143 1e-05
0.0112635 0.00112105 1e-05
0.0113859 0.00112066 1e-05
0.0115093 0.00112026 1e-05
0.0116327 0.00111984 1e-05
0.0117561 0.00111941 1e-05
0.0118795 0.00111897 1e-05
0.0120028 0.00111852 1e-05
0.0121272 0.00111805 1e-05
0.0122515 0.00111757 1e-05
0.0123759 0.00111708 1e-05
0.0125002 0.00111658 1e-05
0.0126245 0.00111606 1e-05
0.0127498 0.00111552 1e-05
0.0128752 0.00111498 1e-05
0.0130005 0.00111442 1e-05
0.0131258 0.00111385 1e-05
0.0132511 0.00111327 1e-05
0.0133774 0.00111267 1e-05
0.0135036 0.00111205 1e-05
0.0136299 0.00111143 1e-05
0.0137562 0.00111079 1e-05
0.0138825 0.00111014 1e-05
0.0140098 0.00110947 1e-05
0.014137 0.00110879 1e-05
0.0142643 0.00110809 1e-05
0.0143915 0.00110738 1e-05
0.0145188 0.00110666 1e-05
0.0146471 0.00110593 1e-05
0.0147753 0.00110517 1e-05
0.0149036 0.00110441 1e-05
0.0150318 0.00110362 1e-05
0.0151601 0.00110283 1e-05
0.0152893 0.00110203 1e-05
0.0154186 0.0011012 1e-05
0.0155478 0.00110036 1e-05
0.0156771 0.00109951 1e-05
0.0158063 0.00109864 1e-05
0.0159366 0.00109777 1e-05
0.0160668 0.00109687 1e-05
0.0161971 0.00109595 1e-05
0.0163273 0.00109502 1e-05
0.0164576 0.00109408 1e-05
0.0165889 0.00109313 1e-05
0.0167201 0.00109215 1e-05
0.0168514 0.00109116 1e-05
0.0169827 0.00109015 1e-05
0.0171139 0.00108913 1e-05
0.0172462 0.0010881 1e-05
0.0173785 0.00108705 1e-05
0.0175108 0.00108597 1e-05
0.0176431 0.00108488 1e-05
0.0177754 0.00108378 1e-05
0.0179087 0.00108268 1e-05
0.018042 0.00108154 1e-05
0.0181753 0.00108038 1e-05
0.0183087 0.0010792 1e-05
0.018442 0.00107802 1e-05
0.0185763 0.00107683 1e-05
0.0187107 0.00107561 1e-05
0.018845 0.00107436 1e-05
0.0189794 0.00107309 1e-05
0.0191137 0.00107182 1e-05
0.0192491 0.00107055 1e-05
0.0193845 0.00106924 1e-05
0.0195199 0.0010679 1e-05
0.0196553 0.00106653 1e-05
0.0197907 0.00106518 1e-05
0.0199272 0.00106382 1e-05
0.0200636 0.00106242 1e-05
0.0202001 0.00106098 1e-05
0.0203365 0.00105952 1e-05
0.020473 0.00105807 1e-05
0.0206105 0.00105661 1e-05
0.020748 0.00105512 1e-05
0.0208855 0.00105359 1e-05
0.021023 0.00105204 1e-05
0.0211606 0.00105049 1e-05
0.0212991 0.00104894 1e-05
0.0214377 0.00104734 1e-05
0.0215763 0.00104571 1e-05
0.0217149 0.00104406 1e-05
0.0218535 0.00104242 1e-05
0.0219931 0.00104076 1e-05
0.0221328 0.00103907 1e-05
0.0222724 0.00103733 1e-05
0.0224121 0.00103557 1e-05
0.0225517 0.00103382 1e-05
0.0226925 0.00103206 1e-05
0.0228332 0.00103025 1e-05
0.022974 0.0010284 1e-05
0.0231147 0.00102654 1e-05
0.0232555 0.00102467 1e-05
0.0233973 0.0010228 1e-05
0.0235391 0.00102088 1e-05
0.023681 0.00101892 1e-05
0.0238228 0.00101694 1e-05
0.0239647 0.00101496 1e-05
0.0241076 0.00101296 1e-05
0.0242505 0.00101093 1e-05
0.0243935 0.00100885 1e-05
0.0245364 0.00100675 1e-05
0.0246794 0.00100465 1e-05
0.0248234 0.00100254 1e-05
0.0249675 0.00100037 1e-05
0.0251115 0.000998176 1e-05
0.0252556 0.000995958 1e-05
[...]
POINT_DATA 12075
 FIELD attributes 1
U 3 12075 float
10.0004 	0.00731911 	0 10.0004 	0.00585529 	0 10.0003 	0.00439147 	0 10.0002 	0.00292764 	0 10.0001 	0.00146382 	0 10 	0 	0
10.0001 	0.000883813 	0 10 	0.000707051 	0 10 	0.000530288 	0 10 	0.000353525 	0 10 	0.000176763 	0 10 	0 	0
10.0001 	0.000472182 	0 10.0001 	0.000377565 	0 10.0001 	0.000282949 	0 10 	0.000188332 	0 10 	9.37154e-05 	0 10 	0 	0
10 	0.000274841 	0 10 	0.000219873 	0 10 	0.000164905 	0 10 	0.000109937 	0 10 	5.49683e-05 	0 10 	0 	0
10 	8.9008e-05 	0 10 	7.12064e-05 	0 10 	5.34048e-05 	0 10 	3.56032e-05 	0 10 	1.78016e-05 	0 10 	0 	0
10 	-1.85239e-05 	0 10 	-1.48191e-05 	0 10 	-1.11143e-05 	0 10 	-7.40955e-06 	0 10 	-3.70477e-06 	0 10 	0 	0
10 	-0.000210731 	0 10 	-0.000168585 	0 10 	-0.000126439 	0 10 	-8.42925e-05 	0 10 	-4.21462e-05 	0 10 	0 	0
10 	-0.000374269 	0 10 	-0.000299416 	0 10 	-0.000224562 	0 10 	-0.000149708 	0 10 	-7.48539e-05 	0 10 	0 	0
9.99999 	-0.000425431 	0 9.99999 	-0.000340345 	0 9.99999 	-0.000255258 	0 10 	-0.000170172 	0 10 	-8.50861e-05 	0 10 	0 	0
9.17387 	0.0870994 	0 9.1308 	0.0696795 	0 9.08741 	0.0522594 	0 9.04368 	0.034839 	0 8.99962 	0.0174185 	0 8.95524 	0 	0
10.0004 	0.00731911 	0 10.0024 	0.0151723 	0 10.0045 	0.0221939 	0 10.0065 	0.0291714 	0 10.0085 	0.0361049 	0 10.0135 	0.0463225 	0 10.0163 	0.0402252 	0 10.0207 	0.0401874 	0 10.0251 	0.0401497 	0 10.0296 	0.0401122 	0 10.0355 	0.0445756 	0 10.0384 	0.0379417 	0 10.0424 	0.0379027 	0 10.0463 	0.0378637 	0 10.0503 	0.0378246 	0 10.0544 	0.0409278 	0 10.0566 	0.0388594 	0 10.059 	0.0401754 	0 10.0614 	0.0414929 	0 10.0638 	0.0428121 	0 10.066 	0.0452731 	0 10.0675 	0.04539 	0 10.0688 	0.0465944 	0 10.0701 	0.0478 	0 10.0714 	0.0490066 	0 10.0725 	0.0500262 	0 10.0725 	0.0500959 	0 10.0726 	0.0501655 	0 10.0727 	0.0502352 	0 10.0728 	0.0503048 	0 10.0728 	0.0503641 	0 10.0733 	0.0510029 	0 10.0738 	0.051635 	0 10.0743 	0.0522676 	0 10.0748 	0.0529008 	0 10.0753 	0.0533689 	0 10.0751 	0.0536807 	0 10.0747 	0.0538863 	0 10.0743 	0.054092 	0 10.0739 	0.0542978 	0 10.0734 	0.0542646 	0 10.0729 	0.0544314 	0 10.0717 	0.0544291 	0 10.0706 	0.0544268 	0 10.0694 	0.0544245 	0 10.0678 	0.0541531 	0 10.0674 	0.0542637 	0 10.0657 	0.0541597 	0 10.064 	0.0540557 	0 10.0623 	0.0539517 	0 10.0597 	0.0535626 	0 10.0596 	0.0536594 	0 10.0575 	0.053507 	0 10.0554 	0.0533546 	0 10.0532 	0.0532021 	0 10.0496 	0.0527539 	0 10.0501 	0.052869 	0 10.0477 	0.0527102 	0 10.0452 	0.0525514 	0 10.0428 	0.0523925 	0 10.038 	0.0519331 	0 10.0394 	0.0520978 	0 10.0367 	0.051965 	0 10.034 	0.0518322 	0 10.0313 	0.0516993 	0 10.0254 	0.0512575 	0 10.0277 	0.0514981 	0 10.0249 	0.0514329 	0 10.022 	0.0513676 	0 10.0191 	0.0513024 	0 10.012 	0.0509327 	0 10.0154 	0.0512945 	0 10.0124 	0.0513294 	0 10.0094 	0.0513643 	0 10.0064 	0.0513992 	0 9.99793 	0.0511206 	0 10.0026 	0.051663 	0 9.99955 	0.0519473 	0 9.99648 	0.0522316 	0 9.99342 	0.052516 	0 9.98374 	0.0525415 	0 9.98984 	0.0534349 	0 9.98675 	0.0539917 	0 9.98367 	0.0545486 	0 9.9806 	0.0551056 	0 9.96961 	0.0553063 	0 9.97732 	0.0565788 	0 9.9746 	0.0579783 	0 9.97189 	0.059378 	0 9.9692 	0.0607778 	0 9.95736 	0.0619901 	0 9.96738 	0.0641184 	8.67038e-22 9.96632 	0.0660427 	7.00543e-21 9.96526 	0.0679673 	1.31414e-20 9.96422 	0.0698921 	1.92749e-20 9.9528 	0.0709389 	1.57961e-20 9.96516 	0.07234 	1.19666e-19 9.96511 	0.072957 	1.11824e-19 9.96506 	0.0735741 	1.03991e-19 9.96501 	0.0741912 	9.61667e-20 9.95355 	0.0738049 	-1.94137e-20 9.96649 	0.073517 	-5.31935e-20 9.96646 	0.0726886 	-5.89455e-20 9.96642 	0.0718601 	-6.46921e-20 9.96638 	0.0710316 	-7.04333e-20 9.95448 	0.0699188 	-2.49201e-20 9.967 	0.068887 	-2.22454e-20 9.96599 	0.0673383 	-1.52452e-20 9.96497 	0.0657896 	-8.24647e-21 9.96394 	0.0642408 	-1.2492e-21 9.951 	0.062677 	9.92599e-21 9.96303 	0.0617127 	-4.35311e-21 9.96106 	0.0600686 	-2.69821e-20 9.95908 	0.0584243 	-4.96162e-20 9.95709 	0.0567797 	-7.22553e-20 9.94312 	0.054907 	-1.06025e-19 9.95481 	0.0542286 	-1.62054e-19 9.95205 	0.052747 	-1.47178e-19 9.94928 	0.0512651 	-1.32286e-19 9.9465 	0.0497828 	-1.17377e-19 9.9316 	0.0477788 	-3.52846e-20 9.94297 	0.0472629 	5.79181e-20 9.93947 	0.0458977 	7.45443e-20 9.93595 	0.044532 	9.11495e-20 9.93243 	0.0431659 	1.07734e-19 9.91667 	0.0411351 	4.39557e-20 9.92765 	0.0406468 	-8.42518e-20 9.9234 	0.0393343 	-9.18886e-20 9.91914 	0.0380214 	-9.94929e-20 9.91487 	0.0367081 	-1.07065e-19 9.89831 	0.0347316 	-2.60678e-22 9.90876 	0.0342456 	1.02436e-19 9.90374 	0.0329697 	9.12622e-20 9.8987 	0.0316933 	8.00564e-20 9.89365 	0.0304164 	6.88187e-20 9.87638 	0.0285199 	-2.99553e-20 9.88611 	0.0280309 	-1.12636e-19 9.88032 	0.0267806 	-1.39796e-19 9.87451 	0.0255297 	-1.66944e-19 9.86869 	0.0242783 	-1.9408e-19 9.85087 	0.0224598 	-1.56972e-19 9.85961 	0.0219937 	-1.99262e-19 9.85307 	0.02079 	-1.84123e-19 9.84652 	0.0195858 	-1.68975e-19 9.83995 	0.0183809 	-1.53817e-19 9.82187 	0.0166487 	-9.40758e-20 9.82924 	0.0162253 	-8.16517e-20 9.82202 	0.015087 	-5.91495e-20 9.81477 	0.0139481 	-3.66509e-20 9.80752 	0.0128085 	-1.41559e-20 9.78959 	0.0111708 	4.59379e-21 9.79513 	0.0107699 	0 9.78727 	0.00969286 	0 9.77939 	0.00861517 	0 9.7715 	0.00753683 	0 9.75424 	0.00600247 	0 9.75739 	0.00557857 	-1.64198e-20 9.74893 	0.00455042 	-3.94113e-20 9.74046 	0.00352156 	-6.2406e-20 9.73197 	0.00249198 	-8.54041e-20 9.71597 	0.00108054 	-1.11537e-19 9.71614 	0.000582977 	-1.28674e-19 9.70712 	-0.00040475 	-1.29282e-19 9.69809 	-0.00139325 	-1.29881e-19 9.68904 	-0.00238251 	-1.30469e-19 9.67493 	-0.00363794 	-1.20267e-19 9.67149 	-0.00425572 	-6.9754e-20 9.66197 	-0.00520525 	-3.45688e-20 9.65242 	-0.00615561 	5.987e-22 9.64286 	-0.00710678 	3.57484e-20 9.63133 	-0.00816473 	6.43344e-20 9.62816 	-0.00853997 	6.90336e-20 9.62266 	-0.00904436 	6.90762e-20 9.61717 	-0.00954902 	6.91152e-20 9.61166 	-0.0100539 	6.91505e-20 9.60636 	-0.0105399 	6.9181e-20 9.60175 	-0.0109604 	6.96818e-20 9.59714 	-0.0113811 	7.01819e-20 9.59253 	-0.011802 	7.06811e-20 9.58791 	-0.0122231 	7.11795e-20 9.58031 	-0.0127636 	7.22348e-20 9.57246 	-0.013563 	5.73862e-20 9.56192 	-0.0144648 	4.25356e-20 9.55136 	-0.0153676 	2.76829e-20 9.54079 	-0.0162714 	1.28281e-20 9.52117 	-0.0174971 	-6.06584e-22 9.51835 	-0.0181075 	-1.21056e-20 9.50744 	-0.0189919 	-2.62057e-20 9.49651 	-0.0198773 	-4.03038e-20 9.48556 	-0.0207638 	-5.43999e-20 9.46031 	-0.0220909 	-6.85066e-20 9.46186 	-0.0225894 	-7.135e-20 9.45062 	-0.0234618 	-7.98077e-20 9.43936 	-0.0243354 	-8.826e-20 9.42808 	-0.02521 	-9.67069e-20 9.3981 	-0.0265614 	-1.15191e-19 9.40332 	-0.0270278 	-1.59642e-19 9.3918 	-0.0278931 	-1.48376e-19 9.38024 	-0.0287595 	-1.37133e-19 9.36867 	-0.029627 	-1.25911e-19 9.33489 	-0.0309253 	-4.7853e-20 9.34309 	-0.0314335 	-3.19064e-20 9.33132 	-0.032294 	-2.26702e-20 9.31952 	-0.0331556 	-1.34326e-20 9.30769 	-0.0340185 	-4.19379e-21 9.271 	-0.0351903 	0 9.28151 	-0.0358064 	0 9.26952 	-0.0366644 	0 9.25751 	-0.0375236 	0 9.24547 	-0.0383841 	0 9.20671 	-0.0393662 	0 9.21892 	-0.040147 	2.66742e-21 9.20675 	-0.0410061 	1.1149e-20 9.19456 	-0.0418665 	1.96293e-20 9.18234 	-0.0427281 	2.81082e-20 9.14225 	-0.0434712 	4.80891e-20 9.15562 	-0.0444656 	1.76803e-19 9.14331 	-0.0453288 	1.80765e-19 9.13097 	-0.0461933 	1.84753e-19 9.1186 	-0.0470591 	1.88765e-19 9.07784 	-0.0475211 	4.84256e-20 9.09192 	-0.0487637 	2.63955e-20 9.07949 	-0.0496355 	1.85134e-20 9.06702 	-0.0505087 	1.06299e-20 9.05439 	-0.0513795 	2.87163e-21 9.01367 	-0.0515417 	1.89875e-20 9.02667 	-0.0530337 	1.22902e-19 9.01555 	-0.0539507 	1.30657e-19 9.00299 	-0.0548355 	1.32815e-19 8.98725 	-0.0556014 	1.19951e-19 8.94992 	-0.0555491 	4.54213e-21 8.96011 	-0.0572208 	-1.17847e-19 8.95174 	-0.0582639 	-1.50301e-19 8.93911 	-0.0591646 	-1.62245e-19 8.92098 	-0.0597836 	-1.50847e-19 8.88671 	-0.0595705 	-7.07353e-20 8.8944 	-0.0614114 	-2.09737e-19 8.88826 	-0.0626274 	-2.56705e-19 8.87559 	-0.0635496 	-2.60333e-19 8.85569 	-0.0639856 	-2.05122e-19 8.82417 	-0.0636357 	-5.49564e-20 8.82967 	-0.0656059 	-2.88842e-20 8.82531 	-0.0670194 	-1.24063e-20 8.81261 	-0.0679612 	-4.05266e-21 8.79148 	-0.0681877 	0 8.76242 	-0.0677395 	0 8.76597 	-0.0698052 	0 8.763 	-0.0714344 	0 8.75028 	-0.0724051 	0 8.72837 	-0.072426 	2.50984e-21 8.70152 	-0.071936 	6.3684e-21 8.70337 	-0.0741262 	2.72328e-21 8.7015 	-0.0760169 	0 8.68878 	-0.0770166 	0 8.66646 	-0.0767862 	3.05097e-21 8.64157 	-0.0762272 	6.91574e-21 8.64197 	-0.0784804 	3.27146e-21 8.64096 	-0.0806101 	7.56823e-22 8.62827 	-0.0816312 	8.17916e-21 8.6058 	-0.0811602 	2.87787e-20 8.58263 	-0.0805797 	5.03416e-20 8.58176 	-0.0828826 	1.97951e-19 8.58082 	-0.0851881 	3.45562e-19 8.56807 	-0.0861837 	3.46224e-19 8.54639 	-0.0856245 	1.98706e-19 8.52472 	-0.085065 	5.11852e-20 8.52278 	-0.0874465 	3.00258e-20 8.52076 	-0.0898305 	8.86917e-21 8.50862 	-0.0908082 	8.41447e-22 8.48823 	-0.090222 	4.54013e-21 8.46786 	-0.0896353 	8.23866e-21 8.46498 	-0.092002 	4.77146e-21 8.46202 	-0.0943711 	1.30585e-21 8.45052 	-0.0953222 	-1.32831e-22 8.43128 	-0.0947802 	-4.42781e-21 8.41204 	-0.0942379 	-8.7219e-21 8.40834 	-0.0965907 	-5.96476e-20 8.40456 	-0.0989459 	-1.1058e-19 8.39372 	-0.0999022 	-1.13271e-19 8.37549 	-0.0994647 	-6.68629e-20 8.35726 	-0.099027 	-2.04525e-20 8.35285 	-0.101449 	9.44378e-20 8.34836 	-0.103873 	2.09318e-19 8.33815 	-0.104843 	2.20827e-19 8.32079 	-0.104438 	1.2474e-19 8.30344 	-0.104031 	2.86517e-20 8.29841 	-0.106466 	1.51106e-20 8.29329 	-0.108904 	1.56311e-21 8.28371 	-0.109869 	-4.79312e-21 8.2671 	-0.109508 	7.36907e-22 8.2505 	-0.109146 	6.26763e-21 8.2449 	-0.11155 	-6.69116e-22 8.23909 	-0.113901 	-7.86294e-21 8.22975 	-0.114828 	-2.14751e-20 8.21434 	-0.114654 	-7.58885e-20 8.19841 	-0.114387 	-1.33785e-19 8.19229 	-0.116776 	-2.84518e-19 8.18546 	-0.118867 	-3.9773e-19 8.17617 	-0.119841 	-3.71546e-19 8.16244 	-0.119975 	-2.37759e-19 8.14709 	-0.119804 	-6.47561e-20 8.14052 	-0.122187 	7.89322e-20 8.13286 	-0.124038 	1.65039e-19 8.12359 	-0.125059 	1.61559e-19 8.11131 	-0.125486 	1.04203e-19 8.09647 	-0.125403 	7.1649e-22 8.08945 	-0.127786 	-1.01642e-19 8.08114 	-0.129414 	-1.50695e-19 8.07188 	-0.130484 	-1.60376e-19 8.06086 	-0.131194 	-1.36676e-19 8.04647 	-0.131199 	-4.7749e-20 8.03907 	-0.133585 	-3.53136e-20 8.03026 	-0.135003 	-2.29791e-20 8.02097 	-0.136122 	-1.06777e-20 8.01103 	-0.137106 	3.08461e-21 7.99697 	-0.137197 	2.64909e-20 7.98915 	-0.13959 	1.07437e-21 7.97993 	-0.140801 	-6.25562e-21 7.9706 	-0.14196 	-1.27889e-20 7.96124 	-0.143119 	-1.93238e-20 7.94787 	-0.143348 	-4.23857e-21 7.93957 	-0.14556 	-2.19356e-20 7.93024 	-0.146756 	-2.90507e-20 7.92087 	-0.147952 	-3.6171e-20 7.91145 	-0.149149 	-4.32964e-20 7.89919 	-0.149649 	-6.23482e-20 7.89045 	-0.151639 	1.58908e-20 7.88104 	-0.152879 	1.71342e-20 7.87159 	-0.15412 	1.83442e-20 7.86209 	-0.155362 	1.95207e-20 7.85076 	-0.156148 	-2.89013e-20 7.84164 	-0.157915 	1.59145e-20 7.83212 	-0.159196 	1.77014e-20 7.82255 	-0.160478 	1.94576e-20 7.81293 	-0.161761 	2.11831e-20 7.80242 	-0.162822 	2.46702e-21 7.79311 	-0.164345 	-1.95013e-22 7.78361 	-0.165635 	-1.47316e-22 7.77407 	-0.166924 	-9.9633e-23 7.76448 	-0.168215 	-5.19658e-23 7.75551 	-0.169417 	-7.60456e-24 7.7552 	-0.169457 	-6.00886e-24 7.7549 	-0.169496 	-4.41314e-24 7.7546 	-0.169536 	-2.81741e-24 7.75429 	-0.169575 	-1.22167e-24 7.75402 	-0.169607 	0 7.74396 	-0.170958 	0 7.73386 	-0.172303 	0 7.72371 	-0.173649 	0 7.71351 	-0.174995 	0 7.70443 	-0.176099 	0 7.69382 	-0.177714 	0 7.68353 	-0.179093 	0 7.67319 	-0.180473 	0 7.66279 	-0.181854 	0 7.65464 	-0.182761 	0 7.64347 	-0.184628 	0 7.63298 	-0.186029 	0 7.62243 	-0.18743 	0 7.61182 	-0.188833 	0 7.60456 	-0.189535 	0 7.59282 	-0.19164 	0 7.58212 	-0.193055 	0 7.57135 	-0.194471 	0 7.56054 	-0.195888 	0 7.55413 	-0.196396 	0 7.54193 	-0.198654 	0 7.53084 	-0.200175 	0 7.51982 	-0.201605 	0 7.50989 	-0.202806 	0 7.50316 	-0.203346 	0 7.49073 	-0.205603 	0 7.47898 	-0.207374 	-5.69473e-21 7.46769 	-0.208808 	-1.53135e-20 7.45861 	-0.209781 	-2.49525e-20 7.45154 	-0.210339 	-3.46113e-20 7.43885 	-0.212586 	-2.38072e-20 7.42644 	-0.214603 	-1.57249e-20 7.41486 	-0.216038 	-1.45373e-20 7.40661 	-0.216787 	-2.21108e-20 7.39916 	-0.217368 	-3.18207e-20 7.38622 	-0.219615 	-2.09157e-20 7.3732 	-0.221864 	-1.00047e-20 7.3616 	-0.223254 	0 7.35375 	-0.223843 	0 7.34587 	-0.224433 	0 7.33265 	-0.226683 	0 7.31935 	-0.228934 	0 7.3082 	-0.230342 	-2.87554e-21 7.29993 	-0.230919 	-7.43092e-21 7.29162 	-0.231497 	-1.19858e-20 7.27817 	-0.233733 	-4.51088e-20 7.26464 	-0.23597 	-7.82285e-20 7.25394 	-0.237388 	-8.32296e-20 7.24516 	-0.237945 	-6.6749e-20 7.23635 	-0.238503 	-5.02623e-20 7.22259 	-0.240704 	-2.54133e-20 7.20875 	-0.242907 	-5.50158e-22 7.19854 	-0.244287 	-9.19198e-21 7.18928 	-0.244867 	-3.1012e-20 7.18004 	-0.245405 	-5.34941e-20 7.16602 	-0.24756 	-6.56676e-20 7.15299 	-0.249475 	-7.39443e-20 7.14246 	-0.25081 	-7.28239e-20 7.13239 	-0.251669 	-5.44471e-20 7.12264 	-0.252199 	-2.4164e-20 7.10824 	-0.254305 	-2.09612e-20 7.09597 	-0.255914 	-1.4665e-20 7.08504 	-0.257209 	-6.41204e-21 7.07425 	-0.258327 	0 7.06409 	-0.258826 	0 7.04933 	-0.26087 	0 7.03785 	-0.262155 	0 7.02653 	-0.26339 	0 7.01515 	-0.264626 	0 7.00445 	-0.26519 	0 6.99029 	-0.266947 	0 6.97865 	-0.268114 	0 6.96697 	-0.269281 	0 6.95524 	-0.270449 	0 6.94385 	-0.271257 	-6.57087e-21 6.93055 	-0.272665 	6.2297e-23 6.91854 	-0.273758 	1.64398e-22 6.90649 	-0.274852 	2.66534e-22 6.89438 	-0.275947 	3.68707e-22 6.88227 	-0.277001 	6.1749e-22 6.88054 	-0.277166 	1.6222e-21 6.87897 	-0.277295 	1.33736e-21 6.8774 	-0.277423 	1.05234e-21 6.87582 	-0.277552 	7.67137e-22 6.87426 	-0.277679 	4.83708e-22 6.86323 	-0.278571 	-1.50495e-21 6.85217 	-0.279463 	-3.50239e-21 6.84107 	-0.280356 	-5.50864e-21 6.82993 	-0.281249 	-7.52375e-21 6.82021 	-0.281915 	1.67781e-21 6.80661 	-0.283114 	4.2961e-21 6.79361 	-0.284049 	1.03991e-20 6.78056 	-0.284984 	1.64993e-20 6.76747 	-0.285921 	2.25969e-20 6.75749 	-0.286364 	2.89267e-20 6.74276 	-0.28779 	2.27104e-20 6.72941 	-0.288637 	2.16367e-20 6.71601 	-0.289484 	2.0558e-20 6.70287 	-0.290287 	1.95004e-20 6.69401 	-0.2904 	1.88252e-20 6.67861 	-0.291865 	1.73825e-20 6.66448 	-0.292784 	1.57053e-20 6.65075 	-0.293519 	1.39466e-20 6.63905 	-0.293914 	1.39632e-20 6.62991 	-0.293882 	1.62146e-20 6.61418 	-0.295204 	1.24517e-20 6.59894 	-0.296313 	9.49561e-21 6.58495 	-0.296911 	8.47088e-21 6.57482 	-0.296869 	1.0472e-20 6.5655 	-0.296694 	1.31051e-20 6.54953 	-0.297873 	8.9802e-21 6.53351 	-0.299053 	4.85075e-21 6.52001 	-0.299475 	-6.58198e-22 6.51052 	-0.29917 	-3.72001e-21 6.50103 	-0.298865 	-6.78226e-21 6.48482 	-0.29992 	-4.2055e-21 6.46855 	-0.300976 	-1.63017e-21 6.45586 	-0.301279 	0 6.44627 	-0.300809 	0 6.43668 	-0.300339 	0 6.4203 	-0.301235 	0 6.40388 	-0.30213 	-8.40385e-24 6.39228 	-0.302208 	-2.55635e-21 6.38246 	-0.301639 	-5.11367e-21 6.37285 	-0.300998 	-7.67218e-21 6.35635 	-0.301727 	-5.52971e-21 6.3418 	-0.302121 	-4.42076e-21 6.33018 	-0.302013 	-4.85187e-21 6.31944 	-0.301599 	-4.35705e-21 6.30986 	-0.300778 	-2.62461e-21 6.29331 	-0.301331 	-2.349e-20 6.28077 	-0.301201 	-2.65236e-20 6.26921 	-0.300901 	-2.51082e-20 6.25765 	-0.300601 	-2.36917e-20 6.24811 	-0.299629 	-6.66826e-22 6.23262 	-0.299831 	-2.03807e-20 6.2212 	-0.299334 	-1.92953e-20 6.20977 	-0.298836 	-1.82097e-20 6.19834 	-0.298339 	-1.71239e-20 6.18796 	-0.297505 	-7.59585e-21 6.17465 	-0.297166 	-6.4825e-21 6.16342 	-0.296468 	-2.59862e-21 6.1522 	-0.29577 	1.28528e-21 6.14099 	-0.295072 	5.1692e-21 6.1298 	-0.294366 	9.07125e-21 6.12948 	-0.294353 	9.04737e-21 6.12921 	-0.294331 	9.10073e-21 6.12894 	-0.294309 	9.15408e-21 6.12867 	-0.294287 	9.20744e-21 6.1284 	-0.294265 	9.26081e-21 6.11742 	-0.293415 	1.17209e-20 6.10646 	-0.292565 	1.41801e-20 6.0955 	-0.291715 	1.66384e-20 6.08455 	-0.290865 	1.90958e-20 6.07503 	-0.289695 	1.3237e-20 6.06363 	-0.288912 	1.30837e-20 6.05272 	-0.287851 	1.0812e-20 6.04183 	-0.28679 	8.54111e-21 6.03095 	-0.285728 	6.27111e-21 6.02299 	-0.284017 	4.24198e-21 6.01148 	-0.283309 	5.21269e-21 6.00098 	-0.282053 	3.35273e-21 5.9905 	-0.280797 	1.49317e-21 5.98076 	-0.27938 	6.03573e-22 5.974 	-0.277306 	3.66853e-21 5.96289 	-0.276414 	1.08303e-21 5.95242 	-0.275198 	7.30902e-22 5.94243 	-0.273748 	1.98886e-21 5.93463 	-0.271823 	6.80061e-21 5.92839 	-0.269564 	1.41014e-20 5.9178 	-0.268465 	1.85024e-20 5.90736 	-0.267302 	2.25922e-20 5.89793 	-0.265678 	2.4475e-20 5.89209 	-0.263293 	1.91872e-20 5.88642 	-0.260885 	1.36832e-20 5.87642 	-0.25961 	1.84956e-20 5.86644 	-0.258335 	2.33081e-20 5.85851 	-0.256466 	2.31034e-20 5.85339 	-0.253943 	1.77785e-20 5.84832 	-0.251421 	1.2454e-20 5.83896 	-0.249999 	1.71216e-20 5.82963 	-0.248577 	2.17892e-20 5.82316 	-0.246526 	2.09169e-20 5.81866 	-0.243919 	1.28816e-20 5.81423 	-0.241312 	4.84421e-21 5.80556 	-0.239768 	3.7448e-21 5.79713 	-0.238183 	2.57588e-21 5.79203 	-0.235951 	3.3674e-22 5.788 	-0.233352 	-3.4707e-21 5.78421 	-0.230687 	-7.55834e-21 5.77626 	-0.229044 	-2.83637e-21 5.76971 	-0.227144 	-8.09916e-22 5.76526 	-0.224857 	-2.83834e-21 5.76141 	-0.222384 	-6.227e-21 5.75827 	-0.219699 	-1.11817e-20 5.75106 	-0.217991 	2.02812e-21 5.74629 	-0.215853 	5.09198e-21 5.74248 	-0.213551 	4.29573e-21 5.73885 	-0.211214 	2.45798e-21 5.73634 	-0.208557 	-8.62549e-21 5.72999 	-0.206809 	-5.80808e-21 5.72677 	-0.20454 	-4.01657e-21 5.7236 	-0.202272 	-2.22367e-21 5.72048 	-0.200005 	-4.29386e-22 5.71832 	-0.1975 	0 5.71361 	-0.195637 	0 5.71101 	-0.193448 	0 5.70846 	-0.191261 	0 5.70596 	-0.189074 	0 5.70403 	-0.186768 	0 5.70083 	-0.184872 	3.17912e-23 5.69882 	-0.182809 	8.40837e-23 5.69686 	-0.180746 	1.36344e-22 5.69496 	-0.178684 	1.88571e-22 5.69327 	-0.176591 	1.27999e-22 5.69216 	-0.175686 	3.37991e-22 5.69142 	-0.174734 	-6.98781e-22 5.69069 	-0.173782 	-1.73425e-21 5.68998 	-0.172831 	-2.76842e-21 5.68924 	-0.171824 	-3.86089e-21 5.68864 	-0.170891 	-4.77617e-21 5.68805 	-0.169959 	-5.69074e-21 5.68747 	-0.169026 	-6.60461e-21 5.6869 	-0.168094 	-7.51777e-21 5.68644 	-0.167121 	-7.35944e-21 5.68568 	-0.16546 	-8.22893e-21 5.6849 	-0.163777 	-7.25298e-21 5.68415 	-0.162094 	-6.27095e-21 5.68345 	-0.160413 	-5.28286e-21 5.68302 	-0.158631 	9.4886e-22 5.68286 	-0.157269 	5.91196e-21 5.68253 	-0.155853 	8.09509e-21 5.68223 	-0.154439 	1.02732e-20 5.68197 	-0.153026 	1.24463e-20 5.68204 	-0.151483 	5.01008e-21 5.68242 	-0.150452 	1.18998e-21 5.68248 	-0.149363 	-2.16938e-21 5.68257 	-0.148275 	-5.52656e-21 5.68268 	-0.147188 	-8.88156e-21 5.68312 	-0.145973 	-1.22812e-20 5.68399 	-0.145318 	-2.01786e-20 5.68437 	-0.144622 	-2.08793e-20 5.68477 	-0.143928 	-2.15765e-20 5.68518 	-0.143234 	-2.22702e-20 5.68587 	-0.142437 	-9.93052e-21 5.68716 	-0.142203 	-4.61003e-21 5.68781 	-0.141959 	-1.48682e-21 5.68845 	-0.141715 	1.55735e-21 5.68912 	-0.141461 	4.37788e-21 5.68993 	-0.141152 	5.91066e-21 5.69145 	-0.141376 	1.66243e-20 5.69245 	-0.141602 	1.95033e-20 5.69327 	-0.141829 	1.9892e-20 5.6941 	-0.142041 	1.64861e-20 5.69498 	-0.142221 	5.64244e-21 5.69668 	-0.142898 	3.99551e-21 5.69796 	-0.143592 	2.3688e-21 5.69891 	-0.144299 	7.58405e-22 5.69982 	-0.144998 	-1.70676e-21 5.70069 	-0.14569 	-4.93296e-21 5.70251 	-0.146848 	-1.95796e-21 5.70404 	-0.148027 	0 5.70504 	-0.149247 	0 5.7059 	-0.150489 	-2.36121e-21 5.7067 	-0.151739 	-5.61885e-21 5.70856 	-0.153426 	-2.62664e-21 5.71028 	-0.155122 	1.85621e-22 5.71125 	-0.156887 	1.71028e-21 5.71195 	-0.158704 	6.36515e-21 5.7126 	-0.160523 	1.12595e-20 5.71441 	-0.162758 	1.93654e-20 5.71617 	-0.16499 	2.74724e-20 5.71707 	-0.16731 	2.7678e-20 5.71754 	-0.169704 	2.05455e-20 5.71795 	-0.172095 	1.34142e-20 5.71963 	-0.174882 	1.43767e-20 5.72125 	-0.177666 	1.53414e-20 5.72208 	-0.180545 	1.22116e-20 5.72224 	-0.183515 	4.94513e-21 5.72234 	-0.186483 	-2.31989e-21 5.72381 	-0.18983 	-1.45836e-20 5.7252 	-0.193174 	-2.68444e-20 5.72586 	-0.196619 	-2.8904e-20 5.72564 	-0.200168 	-1.90709e-20 5.72535 	-0.203715 	-9.23996e-21 5.72651 	-0.207626 	7.492e-21 5.72759 	-0.211534 	2.42192e-20 