y,UPrime2Mean_0,UPrime2Mean_1,UPrime2Mean_2,UPrime2Mean_3,UPrime2Mean_4,UPrime2Mean_5
3.032,2.04592e-05,-1.00715e-08,-1.91012e-26,6.76582e-10,7.38468e-28,1.75526e-44
3.02765,2.19619e-05,2.93822e-09,-4.89329e-26,4.59583e-09,-6.26748e-29,2.71293e-44
3.02299,-1.17759e-05,3.31928e-08,8.55211e-26,1.48495e-08,9.84227e-28,1.93173e-43
3.01803,-5.54363e-05,6.0449e-08,5.16638e-26,3.35159e-08,1.67148e-27,8.49659e-43
3.01278,-9.3256e-05,8.46886e-08,-8.96878e-26,6.26156e-08,-1.09087e-27,8.82594e-43
3.00726,-0.000124252,1.05489e-07,1.51039e-25,1.04037e-07,-1.97713e-28,6.99143e-43
3.00146,-0.000150099,1.20688e-07,1.71274e-27,1.59387e-07,6.00565e-28,9.3289e-43
2.99539,-0.00017216,1.28039e-07,-1.72802e-25,2.3025e-07,-1.51845e-28,4.61026e-43
2.98903,-0.000191359,1.25602e-07,5.80773e-27,3.18298e-07,1.16494e-28,1.31286e-44
2.98239,-0.000208325,1.11672e-07,-7.33043e-25,4.25321e-07,1.42698e-28,4.25091e-42
2.97546,-0.000223506,8.47008e-08,-1.64392e-26,5.53213e-07,-2.64994e-27,8.42099e-42
2.96823,-0.00023723,4.32439e-08,1.32475e-24,7.04006e-07,-1.68906e-26,9.10535e-42
2.96069,-0.000249745,-1.43769e-08,4.57491e-26,8.79937e-07,1.68413e-27,9.84568e-42
2.95282,-0.000261235,-8.9984e-08,-5.58222e-25,1.08345e-06,1.58734e-26,4.91282e-42
2.94463,-0.000271845,-1.8418e-07,7.60402e-27,1.31702e-06,-1.35081e-28,1.44131e-45
2.9361,-0.000281693,-2.96171e-07,1.81124e-24,1.58321e-06,-5.19269e-26,5.44517e-41
2.92722,-0.000290893,-4.23848e-07,-9.77277e-25,1.88464e-06,5.37168e-26,1.66025e-40
2.91798,-0.000299559,-5.64723e-07,-2.80162e-24,2.22417e-06,1.06589e-25,1.11682e-40
2.90836,-0.000307798,-7.16443e-07,1.95679e-24,2.60485e-06,-1.10603e-25,5.58579e-41
2.89837,-0.0003157,-8.76585e-07,-7.39862e-26,3.02974e-06,2.51896e-26,1.03708e-40
2.88797,-0.000323344,-1.04343e-06,-1.02749e-24,3.50214e-06,5.60667e-26,5.88086e-41
2.87718,-0.000330805,-1.21557e-06,-1.09461e-24,4.02567e-06,1.06847e-25,3.37568e-41
2.86596,-0.00033814,-1.39142e-06,1.73261e-26,4.60408e-06,-2.98363e-26,4.27619e-41
2.85432,-0.000345383,-1.5691e-06,4.19096e-24,5.24086e-06,-4.63446e-25,5.06538e-41
2.84224,-0.000352546,-1.74688e-06,2.16849e-24,5.93919e-06,-2.20484e-25,9.98803e-41
2.82971,-0.000359638,-1.92326e-06,-3.83399e-24,6.70246e-06,5.48078e-25,2.11066e-40
2.81672,-0.000366655,-2.09726e-06,-1.98295e-24,7.53473e-06,2.2895e-25,1.765e-40
2.80326,-0.000373573,-2.26919e-06,3.56423e-24,8.44016e-06,-6.08152e-25,5.76481e-41
2.78932,-0.000380353,-2.43912e-06,4.36064e-26,9.42273e-06,3.48303e-26,4.42438e-41
2.77489,-0.000386954,-2.60532e-06,-1.63953e-24,1.04864e-05,3.61212e-25,2.16602e-41
2.75996,-0.000393342,-2.76438e-06,1.58506e-24,1.16349e-05,-3.55873e-25,2.83971e-41
2.74453,-0.000399496,-2.91136e-06,-2.64479e-24,1.28719e-05,8.14076e-25,1.59581e-40
2.72858,-0.0004054,-3.03991e-06,-2.91779e-24,1.42008e-05,6.75214e-25,1.5322e-40
2.7121,-0.000411041,-3.14213e-06,2.4682e-24,1.56248e-05,-8.77044e-25,5.31131e-41
2.6951,-0.000416404,-3.20863e-06,3.35783e-25,1.71469e-05,9.48839e-26,5.60969e-41
2.67756,-0.000421458,-3.22847e-06,-4.57937e-25,1.87699e-05,-4.0664e-26,7.59173e-41
2.65949,-0.000426202,-3.18914e-06,6.31119e-25,2.04962e-05,-5.74433e-25,5.83896e-41
2.64086,-0.000430642,-3.07666e-06,3.64153e-24,2.23282e-05,-2.02898e-24,2.09582e-40
2.6217,-0.000434748,-2.87508e-06,-2.50842e-24,2.42672e-05,1.19992e-24,7.01526e-40
2.60198,-0.000438485,-2.56562e-06,-5.55822e-24,2.63143e-05,3.07646e-24,5.04721e-40
2.58171,-0.000441817,-2.12599e-06,3.27966e-24,2.84705e-05,-2.41728e-24,1.64871e-40
2.56089,-0.000444708,-1.5315e-06,2.03374e-24,3.0736e-05,-1.02307e-24,2.18577e-40
2.53952,-0.000447119,-7.56204e-07,-1.457e-25,3.31103e-05,3.34677e-25,1.67744e-40
2.51761,-0.000449001,2.28712e-07,-1.74341e-25,3.55931e-05,1.30158e-25,1.78113e-40
2.49515,-0.000450284,1.45409e-06,-1.36253e-24,3.8184e-05,7.15989e-25,1.93653e-40
2.47216,-0.0004509,2.94717e-06,1.09079e-26,4.08829e-05,-9.03671e-26,2.27777e-40
2.44864,-0.000450798,4.72641e-06,1.02605e-24,4.36887e-05,1.87714e-24,1.56647e-40
2.4246,-0.000449937,6.8017e-06,-4.65622e-25,4.65998e-05,5.47859e-27,1.02251e-40
2.40005,-0.000448285,9.17553e-06,-2.50142e-24,4.9614e-05,-2.62043e-24,1.23771e-40
2.37499,-0.000445813,1.18389e-05,1.16801e-26,5.27274e-05,4.07698e-26,2.03473e-40
2.34945,-0.000442506,1.47746e-05,6.94105e-24,5.59342e-05,4.1159e-24,3.87233e-40
2.32344,-0.000438367,1.79615e-05,2.64045e-25,5.92261e-05,2.87061e-25,4.35375e-40
2.29697,-0.000433407,2.13714e-05,-5.75135e-24,6.25912e-05,-2.95443e-24,1.82755e-40
2.27005,-0.000427631,2.49688e-05,-8.33262e-24,6.60138e-05,-2.7436e-24,2.03528e-40
2.24272,-0.000421045,2.87153e-05,2.67045e-24,6.9475e-05,-1.23004e-24,4.76593e-40
2.21499,-0.000413662,3.25681e-05,-2.43089e-24,7.29538e-05,-5.6657e-26,5.17462e-40
2.18687,-0.000405512,3.64782e-05,-1.70893e-23,7.64259e-05,-8.33228e-25,6.95599e-40
2.1584,-0.000396656,4.03941e-05,1.77389e-23,7.98627e-05,1.87591e-24,8.1021e-40
2.1296,-0.000387177,4.4263e-05,6.30222e-24,8.3234e-05,-1.01868e-24,5.77469e-40
2.10049,-0.000377165,4.80343e-05,-2.02798e-23,8.65092e-05,-2.00509e-24,3.00704e-40
2.0711,-0.000366717,5.16592e-05,1.1508e-23,8.96569e-05,9.93524e-25,4.72831e-40
2.04145,-0.000355938,5.50821e-05,4.87904e-23,9.26405e-05,1.73016e-24,7.55337e-40
2.01158,-0.000344943,5.82249e-05,4.56308e-24,9.54155e-05,1.94872e-25,5.70356e-40
1.9815,-0.000333874,6.0981e-05,-6.68144e-23,9.79265e-05,-1.6814e-24,7.07895e-40
1.95126,-0.000322913,6.32208e-05,-5.46131e-24,0.000100104,-3.11756e-25,7.22398e-40
1.92088,-0.000312273,6.48001e-05,3.45436e-23,0.000101871,8.33302e-25,2.61046e-40
1.89039,-0.000302211,6.5582e-05,3.00884e-23,0.000103146,1.26478e-24,2.16386e-40
1.85982,-0.000293001,6.54517e-05,2.75737e-23,0.000103859,-1.99529e-24,3.56243e-39
1.8292,-0.000284961,6.43674e-05,3.54785e-24,0.000103939,-3.16238e-24,3.51818e-39
1.79856,-0.000278308,6.23255e-05,-1.46027e-23,0.000103351,1.93687e-24,6.53282e-39
1.76794,-0.000273027,5.93348e-05,-1.37648e-22,0.000102109,7.64771e-25,1.22234e-38
1.73735,-0.000268956,5.54813e-05,-3.41994e-23,0.000100243,-3.34893e-24,9.09477e-39
1.70684,-0.000265747,5.09036e-05,1.32673e-22,9.78167e-05,-9.00648e-24,1.04699e-38
1.67642,-0.000262924,4.57921e-05,4.45156e-23,9.49258e-05,-3.65788e-24,7.469e-39
1.64613,-0.000260085,4.04228e-05,-5.97641e-24,9.16702e-05,-3.35423e-25,2.61969e-39
1.61599,-0.000256731,3.50212e-05,5.06011e-24,8.81768e-05,2.85793e-25,2.59369e-39
1.58603,-0.000252377,2.97334e-05,-3.14165e-23,8.45718e-05,8.51911e-24,2.68896e-39
1.55628,-0.00024678,2.46858e-05,2.925e-23,8.09424e-05,-9.12106e-24,6.41614e-39
1.52675,-0.000239858,1.99424e-05,3.2964e-23,7.73679e-05,-8.13026e-24,9.65615e-39
1.49748,-0.000231664,1.5532e-05,-2.29656e-23,7.39069e-05,5.56284e-24,4.70077e-39
1.46848,-0.000222418,1.14831e-05,-6.68075e-24,7.05842e-05,1.29209e-23,4.01657e-39
1.43978,-0.000212378,7.77603e-06,-1.12406e-23,6.74186e-05,8.75143e-24,5.90034e-39
1.41138,-0.000201691,4.31777e-06,3.1177e-25,6.44397e-05,-8.08112e-24,2.15677e-39
1.38332,-0.00019059,1.07916e-06,8.42869e-24,6.16369e-05,4.48652e-24,2.02518e-39
1.35561,-0.00017932,-1.92561e-06,3.69339e-24,5.89775e-05,3.96919e-24,2.0397e-39
1.32826,-0.000167911,-4.74129e-06,2.31558e-24,5.64615e-05,-1.46028e-24,1.14272e-39
1.30129,-0.000156341,-7.41393e-06,-4.60748e-24,5.40954e-05,-1.99575e-24,1.52913e-39
1.27471,-0.000144609,-9.95749e-06,-2.17389e-23,5.18833e-05,-1.39161e-23,1.04838e-38
1.24853,-0.000132668,-1.23881e-05,-1.09366e-23,4.98156e-05,-4.22332e-24,1.30062e-38
1.22276,-0.000120428,-1.47323e-05,9.99371e-24,4.78985e-05,6.7264e-24,4.94166e-39
1.19741,-0.000107761,-1.70477e-05,-2.80452e-23,4.61592e-05,3.99815e-24,1.59587e-38
1.17249,-9.4733e-05,-1.92957e-05,-1.92148e-23,4.45756e-05,-1.82198e-24,3.4772e-38
1.14801,-8.13214e-05,-2.14669e-05,1.3844e-23,4.31394e-05,-2.64725e-24,2.07107e-38
1.12397,-6.74747e-05,-2.35793e-05,-3.05268e-24,4.18182e-05,3.30935e-24,1.57557e-41
1.10038,-5.32774e-05,-2.56105e-05,6.86734e-23,4.05713e-05,-1.83223e-23,3.06163e-38
1.07724,-3.87227e-05,-2.75936e-05,1.35342e-22,3.94003e-05,-4.2934e-23,4.68032e-38
1.05456,-2.38538e-05,-2.95513e-05,-4.09976e-23,3.83143e-05,1.08391e-23,3.61782e-38
1.03233,-8.83366e-06,-3.14821e-05,-1.00108e-22,3.73191e-05,3.20283e-23,2.40071e-38
1.01057,6.0428e-06,-3.33585e-05,-3.77356e-26,3.64109e-05,9.35182e-27,1.75026e-44
0.989272,2.03626e-05,-3.51409e-05,4.08966e-23,3.55856e-05,-9.13477e-24,2.33952e-38
0.968438,3.36466e-05,-3.67854e-05,-5.30487e-23,3.48387e-05,1.48833e-23,6.03109e-38
0.948068,4.54199e-05,-3.82506e-05,1.40592e-23,3.41688e-05,-9.96205e-24,6.73508e-38
0.928164,5.52803e-05,-3.94729e-05,5.44621e-23,3.35592e-05,-6.26049e-24,1.26774e-37
0.908725,6.29921e-05,-4.04039e-05,-1.18005e-22,3.29928e-05,4.68189e-23,1.1633e-37
0.889751,6.85206e-05,-4.10205e-05,-4.81592e-23,3.24518e-05,8.87379e-24,5.77412e-38
0.87124,7.19962e-05,-4.13132e-05,5.70296e-23,3.19191e-05,-2.5072e-23,5.08576e-38
0.85319,7.36794e-05,-4.13051e-05,4.8832e-23,3.1387e-05,-1.75016e-23,1.55388e-38
0.835601,7.39163e-05,-4.10373e-05,-1.81302e-23,3.08494e-05,1.17851e-23,4.81741e-38
0.818469,7.3068e-05,-4.05608e-05,5.52908e-24,3.03046e-05,-1.37817e-24,9.83069e-38
0.801792,7.14319e-05,-3.99135e-05,-3.96334e-23,2.97542e-05,2.11513e-23,8.38857e-38
0.785567,6.92243e-05,-3.91181e-05,-4.60534e-24,2.91884e-05,4.46518e-25,6.96362e-38
0.76979,6.65964e-05,-3.81865e-05,2.28339e-23,2.8593e-05,-6.54939e-24,1.22499e-37
0.754458,6.36572e-05,-3.71241e-05,2.76022e-24,2.79596e-05,-3.71712e-24,1.75166e-37
0.739566,6.04957e-05,-3.59427e-05,6.24399e-23,2.72831e-05,-5.22727e-23,1.45705e-37
0.72511,5.71868e-05,-3.4658e-05,2.47634e-24,2.65587e-05,1.55926e-24,1.13625e-37
0.711084,5.37989e-05,-3.32897e-05,-3.69788e-23,2.57882e-05,3.1705e-23,5.63807e-38
0.697484,5.04153e-05,-3.18731e-05,4.00073e-26,2.49846e-05,-5.76109e-26,5.19713e-43
0.684303,4.71372e-05,-3.04581e-05,-5.59368e-23,2.41694e-05,6.07628e-23,1.35042e-37
0.671536,4.40548e-05,-2.90921e-05,-3.62234e-24,2.33651e-05,-1.16388e-25,2.75108e-37
0.659176,4.1223e-05,-2.78077e-05,5.40473e-23,2.25878e-05,-6.15444e-23,1.40042e-37
0.647216,3.86611e-05,-2.66207e-05,2.45984e-23,2.18474e-05,-2.58857e-23,7.14673e-38
0.63565,3.63632e-05,-2.55332e-05,2.73863e-23,2.11461e-05,-5.87219e-23,3.04706e-37
0.62447,3.4308e-05,-2.45388e-05,-2.63378e-24,2.04806e-05,-1.76455e-23,2.54025e-37
0.613668,3.24661e-05,-2.36266e-05,2.17547e-23,1.98467e-05,-2.2843e-23,1.2633e-37
0.603237,3.08101e-05,-2.27842e-05,-1.85632e-23,1.92391e-05,4.64906e-23,3.67586e-37
0.593169,2.93151e-05,-2.2e-05,-8.46759e-23,1.86514e-05,1.64709e-22,5.71827e-37
0.583457,2.79653e-05,-2.12689e-05,3.43682e-24,1.80823e-05,9.16513e-24,8.88105e-37
0.574091,2.67606e-05,-2.05963e-05,4.31135e-23,1.75371e-05,-8.76102e-23,9.84395e-37
0.565063,2.57077e-05,-1.9992e-05,-1.06419e-23,1.7025e-05,-2.62906e-23,7.87242e-37
0.556366,2.48114e-05,-1.94638e-05,2.23827e-23,1.65536e-05,-3.67486e-23,1.37648e-36
0.547991,2.40734e-05,-1.90169e-05,5.38351e-24,1.6129e-05,1.44683e-23,1.19253e-36
0.53993,2.34869e-05,-1.86502e-05,-3.31244e-24,1.57529e-05,-8.87293e-24,5.40232e-37
0.532175,2.30321e-05,-1.83528e-05,-3.5609e-23,1.54194e-05,4.87194e-23,9.14058e-37
0.524719,2.26797e-05,-1.81057e-05,-6.04953e-23,1.51166e-05,1.0147e-22,5.90988e-37
0.517553,2.23975e-05,-1.78886e-05,7.73918e-23,1.48314e-05,-1.03806e-22,1.24757e-36
0.510672,2.21531e-05,-1.76812e-05,4.86669e-23,1.45528e-05,-8.92121e-23,3.18008e-36
0.504069,2.19147e-05,-1.74623e-05,-5.74396e-23,1.4269e-05,7.27855e-23,2.85719e-36
0.49774,2.1646e-05,-1.72066e-05,-1.43901e-23,1.39579e-05,2.90298e-23,9.93763e-37
0.491681,2.12981e-05,-1.68789e-05,5.77734e-23,1.35872e-05,-7.63894e-23,7.8052e-37
0.485891,2.08083e-05,-1.64337e-05,-3.53762e-23,1.31315e-05,4.10149e-23,1.9092e-36
0.480373,2.00772e-05,-1.5799e-05,-1.97354e-22,1.25447e-05,2.42047e-22,2.1433e-36
0.475131,1.89307e-05,-1.48432e-05,5.17491e-23,1.17189e-05,-5.08287e-23,2.3602e-36
0.470176,1.7119e-05,-1.3373e-05,3.78895e-22,1.05018e-05,-4.17046e-22,2.92281e-36
0.465527,1.43693e-05,-1.11894e-05,-6.88564e-23,8.7533e-06,7.41978e-23,3.41878e-36
0.461208,1.05815e-05,-8.24438e-06,-2.836e-22,6.47931e-06,3.013e-22,1.80697e-36
0.457256,6.37268e-06,-4.97365e-06,-7.58525e-26,3.95496e-06,1.24374e-25,4.26279e-43
0.453717,2.96872e-06,-2.18532e-06,8.56638e-24,1.85316e-06,3.02344e-24,3.9443e-38
0.450649,1.01026e-06,-4.39832e-07,4.37755e-24,7.34373e-07,2.13781e-24,2.11681e-38
0.44811,0,0,0,0,0,0
0.44811,-3.30781e-20,1.44014e-20,4.35177e-39,-2.4042e-20,1.58617e-39,-1.06452e-56
0.44811,0,0,0,0,0,0
0.44811,0,0,0,0,0,0
