y,UPrime2Mean_0,UPrime2Mean_1,UPrime2Mean_2,UPrime2Mean_3,UPrime2Mean_4,UPrime2Mean_5
3.032,2.57277e-05,1.1106e-08,1.88291e-26,3.19138e-10,2.88813e-29,1.39561e-46
3.02734,5.21526e-05,2.65128e-08,1.96198e-25,2.75022e-09,1.03432e-27,6.49582e-44
3.02209,5.33445e-05,5.16579e-08,1.78527e-25,1.01325e-08,-4.53629e-29,9.47157e-44
3.01633,3.75099e-05,9.19464e-08,1.94302e-27,2.49571e-08,-9.89347e-28,3.05284e-44
3.01011,2.03272e-05,1.46494e-07,-4.25076e-27,4.96629e-08,1.7216e-28,8.59438e-46
3.00345,5.49868e-06,2.16073e-07,-3.60825e-26,8.66345e-08,-7.88859e-28,4.93529e-43
2.99639,-7.13311e-06,2.98654e-07,-1.51252e-25,1.38025e-07,2.51629e-27,1.43453e-42
2.98894,-1.80593e-05,3.89143e-07,1.00584e-26,2.0595e-07,1.28697e-27,1.09162e-42
2.98111,-2.76566e-05,4.80375e-07,1.29366e-25,2.92323e-07,-2.12639e-27,1.49557e-43
2.97291,-3.61981e-05,5.65857e-07,1.32219e-27,3.99289e-07,9.6556e-29,5.0113e-45
2.96432,-4.388e-05,6.41209e-07,1.81293e-25,5.29683e-07,-2.32151e-27,4.79839e-43
2.95534,-5.08197e-05,7.02413e-07,1.79306e-25,6.85799e-07,-2.28455e-27,4.7498e-43
2.94597,-5.7083e-05,7.47502e-07,-1.36809e-25,8.69505e-07,1.40704e-27,4.46074e-43
2.9362,-6.27289e-05,7.76338e-07,1.44287e-25,1.08325e-06,-2.66475e-27,2.36429e-42
2.92601,-6.78171e-05,7.88125e-07,2.36223e-26,1.3297e-06,7.10633e-28,3.81726e-42
2.9154,-7.24043e-05,7.81562e-07,-2.52738e-25,1.61146e-06,4.68394e-27,2.01684e-42
2.90435,-7.65422e-05,7.55131e-07,-1.03929e-28,1.93119e-06,-1.43295e-30,1.55051e-43
2.89285,-8.02811e-05,7.07156e-07,7.45698e-27,2.29173e-06,-1.16134e-28,3.68564e-44
2.88088,-8.36735e-05,6.36592e-07,1.98569e-25,2.69591e-06,4.7676e-27,8.23226e-42
2.86844,-8.67658e-05,5.42545e-07,1.5542e-25,3.14656e-06,-3.00439e-27,4.12431e-41
2.8555,-8.95915e-05,4.22642e-07,-2.02396e-26,3.64668e-06,7.61699e-27,5.99872e-41
2.84206,-9.21835e-05,2.74421e-07,-1.68819e-27,4.19947e-06,1.51508e-26,2.75955e-41
2.8281,-9.45914e-05,9.69009e-08,-4.44424e-26,4.80821e-06,-2.54638e-26,4.39151e-42
2.8136,-9.68783e-05,-1.106e-07,-1.41758e-25,5.47667e-06,-1.08081e-25,1.08246e-41
2.79856,-9.91055e-05,-3.49184e-07,-8.18373e-26,6.20902e-06,5.18667e-26,2.1099e-41
2.78296,-0.000101326,-6.19958e-07,8.51861e-26,7.00955e-06,8.75827e-26,1.65228e-41
2.76679,-0.000103587,-9.24007e-07,3.29831e-26,7.88246e-06,-1.30562e-25,5.5639e-42
2.75002,-0.000105931,-1.26252e-06,5.12894e-26,8.83205e-06,1.17037e-25,2.80081e-41
2.73266,-0.000108397,-1.63703e-06,-8.41625e-26,9.86295e-06,2.5789e-25,2.7336e-41
2.71469,-0.000111026,-2.04957e-06,2.88837e-26,1.09802e-05,-1.47212e-25,1.0553e-41
2.6961,-0.000113859,-2.50265e-06,3.34997e-25,1.2189e-05,-1.37311e-25,2.24262e-41
2.67687,-0.000116939,-2.99896e-06,2.24589e-26,1.34946e-05,-8.26891e-27,2.90879e-41
2.657,-0.000120307,-3.53992e-06,-1.63867e-25,1.49029e-05,-4.06681e-26,1.73054e-41
2.63647,-0.000123997,-4.12579e-06,1.92716e-26,1.64191e-05,1.72329e-27,3.54646e-42
2.61529,-0.000128046,-4.75571e-06,2.40721e-26,1.80483e-05,-1.68996e-26,1.76239e-42
2.59343,-0.000132489,-5.42731e-06,1.07509e-25,1.97953e-05,-6.29956e-26,4.22699e-42
2.5709,-0.000137361,-6.13702e-06,7.36347e-25,2.16646e-05,-4.47687e-25,1.14301e-41
2.54769,-0.000142688,-6.87913e-06,-9.6652e-25,2.366e-05,4.79457e-25,1.98798e-41
2.52379,-0.000148487,-7.64537e-06,-1.38496e-24,2.57854e-05,8.94563e-25,2.20147e-41
2.49921,-0.000154763,-8.42547e-06,9.99957e-25,2.80441e-05,-5.26754e-25,1.53098e-41
2.47393,-0.000161499,-9.20908e-06,9.84569e-25,3.04376e-05,-7.21074e-25,6.53936e-42
2.44797,-0.000168652,-9.98605e-06,-3.37117e-27,3.29649e-05,1.2566e-26,3.06954e-42
2.42131,-0.000176162,-1.07475e-05,1.14365e-24,3.56223e-05,-5.69514e-25,1.15249e-41
2.39397,-0.000183967,-1.14874e-05,2.3306e-25,3.84047e-05,-3.42764e-26,1.61355e-41
2.36595,-0.000191985,-1.21996e-05,-1.11697e-24,4.13067e-05,7.03195e-25,6.18793e-42
2.33725,-0.000200126,-1.28773e-05,-1.6796e-24,4.43207e-05,2.10303e-24,2.79585e-41
2.30788,-0.000208312,-1.35108e-05,3.76927e-27,4.7436e-05,-1.53044e-25,4.82981e-41
2.27786,-0.000216485,-1.4093e-05,1.76709e-24,5.06428e-05,-2.47942e-24,2.24356e-41
2.24719,-0.000224624,-1.46124e-05,2.89871e-26,5.39308e-05,-5.37305e-26,4.25358e-42
2.21589,-0.000232666,-1.50547e-05,-1.45736e-25,5.72859e-05,3.74506e-25,4.55433e-42
2.18397,-0.000240461,-1.54105e-05,1.3415e-24,6.06907e-05,-2.40163e-24,1.61611e-41
2.15146,-0.000247858,-1.56624e-05,1.36242e-24,6.41214e-05,-2.66641e-24,1.39987e-41
2.11836,-0.000254722,-1.57936e-05,4.89567e-25,6.75535e-05,-3.2902e-24,1.428e-41
2.0847,-0.000260924,-1.57933e-05,-4.16094e-25,7.09639e-05,5.56929e-24,7.90228e-41
2.05052,-0.000266351,-1.56513e-05,-8.22332e-25,7.43272e-05,9.71223e-24,8.10408e-41
2.01582,-0.000270904,-1.53589e-05,-2.00945e-25,7.76157e-05,-2.41923e-24,2.87734e-41
1.98064,-0.00027448,-1.49125e-05,-6.23682e-25,8.08015e-05,-4.06532e-24,2.96144e-41
1.945,-0.000276975,-1.43136e-05,9.66456e-25,8.38568e-05,2.73499e-24,2.60162e-41
1.90894,-0.000278303,-1.35637e-05,-2.19941e-26,8.67525e-05,6.69231e-25,1.8089e-41
1.87249,-0.000278408,-1.2667e-05,-4.047e-24,8.94598e-05,-6.83188e-24,1.96027e-41
1.83569,-0.000277255,-1.16322e-05,3.28437e-24,9.19516e-05,3.62415e-24,5.0619e-41
1.79856,-0.0002748,-1.04674e-05,4.1664e-24,9.42032e-05,5.50495e-24,6.37378e-41
1.76114,-0.000270995,-9.17974e-06,-2.44023e-24,9.61921e-05,-2.64599e-24,5.49143e-41
1.72348,-0.000265822,-7.78019e-06,2.41537e-24,9.78981e-05,2.14312e-24,4.65945e-41
1.68561,-0.000259307,-6.28504e-06,-1.87743e-24,9.93026e-05,-1.43654e-24,2.50995e-41
1.64757,-0.000251467,-4.71214e-06,-2.13139e-23,0.00010039,-1.63593e-23,5.86059e-41
1.6094,-0.00024229,-3.07921e-06,6.12649e-24,0.000101145,3.51111e-24,1.26575e-40
1.57115,-0.00023176,-1.40208e-06,1.68942e-23,0.000101558,1.21628e-23,8.83998e-41
1.53285,-0.000219902,3.04449e-07,-5.45264e-24,0.000101622,-3.44263e-24,1.03892e-41
1.49454,-0.000206756,2.02609e-06,-5.92327e-24,0.00010133,-3.23283e-24,1.01177e-41
1.45627,-0.000192372,3.75551e-06,6.22871e-24,0.000100684,3.60075e-24,6.32227e-41
1.41808,-0.000176831,5.49336e-06,5.82438e-24,9.96888e-05,3.18067e-24,1.16223e-40
1.38002,-0.000160217,7.23978e-06,-1.26064e-23,9.83543e-05,-6.47628e-24,7.33638e-41
1.34211,-0.000142616,8.99345e-06,-2.25411e-23,9.66967e-05,-1.04348e-23,5.2656e-41
1.30442,-0.000124139,1.07529e-05,2.41979e-23,9.47385e-05,1.00766e-23,2.19368e-40
1.26696,-0.000104911,1.25132e-05,2.23359e-23,9.25069e-05,1.00472e-23,2.16635e-40
1.22979,-8.50579e-05,1.42664e-05,-2.4242e-23,9.00323e-05,-9.51202e-24,5.09628e-41
1.19293,-6.4708e-05,1.60026e-05,-7.50835e-24,8.73481e-05,-2.45281e-24,1.02381e-41
1.15644,-4.39912e-05,1.7711e-05,1.09746e-23,8.44896e-05,3.52072e-24,1.59967e-41
1.12034,-2.30315e-05,1.93803e-05,-1.85406e-25,8.1492e-05,1.91865e-25,3.29544e-41
1.08467,-1.95254e-06,2.09994e-05,1.71662e-23,7.83901e-05,4.7467e-24,7.31298e-41
1.04945,1.91231e-05,2.25572e-05,1.92816e-23,7.52177e-05,5.70292e-24,6.81974e-41
1.01473,4.00566e-05,2.40337e-05,-1.21042e-23,7.20035e-05,-3.73421e-24,1.14178e-40
0.980524,6.07325e-05,2.54171e-05,-1.16055e-23,6.87722e-05,-3.3398e-24,1.16042e-40
0.946866,8.1047e-05,2.6704e-05,-9.10827e-24,6.55453e-05,-2.0222e-24,1.46976e-41
0.91378,0.00010089,2.78876e-05,-2.6248e-24,6.23414e-05,-6.89492e-25,8.84898e-42
0.881287,0.000120183,2.89675e-05,7.05159e-24,5.91772e-05,1.2958e-24,2.53411e-41
0.849411,0.000138873,2.99445e-05,3.21499e-24,5.60658e-05,8.63686e-25,4.51295e-41
0.818168,0.000156935,3.08214e-05,1.68564e-23,5.30206e-05,3.63421e-24,6.87145e-41
0.787576,0.000174373,3.16023e-05,1.12035e-23,5.00538e-05,2.44317e-24,6.3211e-41
0.75765,0.000191195,3.22904e-05,-2.94915e-24,4.71743e-05,-7.57353e-25,3.72782e-41
0.728402,0.000207403,3.28891e-05,-2.17252e-23,4.43899e-05,-3.84665e-24,9.63102e-41
0.699843,0.000222997,3.34023e-05,-3.12799e-23,4.17074e-05,-5.49101e-24,8.19039e-41
0.671981,0.00023798,3.38342e-05,6.72744e-25,3.91318e-05,1.16603e-25,7.3083e-44
0.644823,0.000252361,3.41897e-05,1.08909e-23,3.66673e-05,1.85043e-24,2.68903e-41
0.618372,0.000266157,3.44752e-05,2.51388e-25,3.43179e-05,1.11631e-25,5.33908e-41
0.592633,0.000279394,3.46962e-05,-1.05203e-23,3.20855e-05,-1.71431e-24,2.65863e-41
0.567606,0.000292098,3.48532e-05,-2.58475e-26,2.99677e-05,-9.53261e-27,3.76093e-44
0.54329,0.000304315,3.49545e-05,1.09964e-23,2.79659e-05,1.4365e-24,2.16798e-41
0.519683,0.000316095,3.50059e-05,1.19378e-23,2.60793e-05,1.59549e-24,2.4296e-41
0.496782,0.000327479,3.50075e-05,-1.00062e-23,2.43036e-05,-1.19801e-24,2.94153e-41
0.47458,0.000338518,3.49649e-05,1.12058e-23,2.26369e-05,1.27538e-24,1.39478e-40
0.453071,0.000349262,3.48844e-05,2.03185e-23,2.10758e-05,2.35525e-24,1.24598e-40
0.432248,0.000359762,3.47738e-05,-1.08057e-23,1.96171e-05,-1.19069e-24,5.41155e-41
0.412102,0.000370068,3.46408e-05,-4.31617e-24,1.82568e-05,-2.95574e-25,1.06809e-40
0.392622,0.000380227,3.44924e-05,-4.92454e-25,1.69909e-05,-6.77943e-26,1.23187e-40
0.373799,0.000390287,3.4336e-05,6.59752e-24,1.58154e-05,6.78911e-25,1.1463e-40
0.35562,0.0004003,3.41793e-05,4.96183e-24,1.47261e-05,5.81777e-25,7.26989e-41
0.338073,0.000410323,3.40308e-05,-5.55482e-24,1.37193e-05,-7.23811e-25,5.97611e-41
0.321146,0.000420418,3.38986e-05,-1.13284e-23,1.27917e-05,-1.25019e-24,7.69247e-41
0.304825,0.000430626,3.37872e-05,-6.62312e-24,1.19394e-05,-6.73141e-25,5.35715e-41
0.289096,0.000440929,3.36918e-05,6.27823e-24,1.11576e-05,6.85493e-25,1.94156e-41
0.273945,0.000451215,3.35935e-05,1.9052e-25,1.04394e-05,1.66044e-26,2.27004e-42
0.259357,0.000461295,3.34652e-05,6.08951e-24,9.77672e-06,5.59098e-25,2.4278e-41
0.245317,0.000471001,3.32886e-05,1.73444e-25,9.16331e-06,3.6668e-26,5.05742e-41
0.231812,0.00048024,3.30572e-05,5.31398e-25,8.5946e-06,1.59316e-25,5.72091e-41
0.218824,0.000488937,3.27657e-05,-7.59397e-25,8.06559e-06,-9.48477e-26,6.03581e-41
0.206341,0.000496987,3.24071e-05,-1.42975e-23,7.57099e-06,-1.42082e-24,6.7344e-41
0.194345,0.000504286,3.19769e-05,7.07581e-25,7.10617e-06,7.32275e-26,7.64327e-41
0.182824,0.000510748,3.14738e-05,-9.45994e-25,6.667e-06,-2.28813e-25,8.15078e-41
0.171761,0.000516303,3.08968e-05,4.51594e-25,6.24946e-06,5.07262e-26,8.64887e-41
0.161141,0.000520885,3.02421e-05,4.1989e-24,5.8493e-06,5.2758e-25,5.88798e-41
0.150951,0.000524401,2.94982e-05,1.22868e-25,5.46156e-06,-7.08042e-26,8.20753e-41
0.141175,0.000526691,2.86446e-05,1.03022e-23,5.08043e-06,9.31712e-25,8.11752e-41
0.1318,0.0005275,2.76515e-05,-6.09739e-24,4.69985e-06,-4.45999e-25,7.18107e-41
0.122812,0.000526482,2.64861e-05,-5.36185e-24,4.31423e-06,-4.8022e-25,7.34916e-41
0.114197,0.000523221,2.51183e-05,-7.3093e-25,3.91977e-06,-5.36466e-26,3.08702e-41
0.105942,0.000517278,2.35231e-05,-1.03783e-23,3.51529e-06,-9.47722e-25,3.70111e-41
0.0980335,0.000508332,2.16925e-05,8.24535e-24,3.10264e-06,6.4219e-25,4.32727e-41
0.0904593,0.000496292,1.96508e-05,1.17418e-23,2.68742e-06,1.00531e-24,2.21661e-41
0.0832071,0.000481279,1.74506e-05,5.33832e-26,2.27901e-06,4.6435e-27,7.47553e-44
0.0762653,0.000463611,1.51675e-05,1.42614e-25,1.88911e-06,1.00395e-26,1.42225e-43
0.0696224,0.000443763,1.28917e-05,5.43239e-24,1.529e-06,3.48077e-25,6.16072e-42
0.063268,0.000422274,1.07111e-05,-5.66557e-24,1.20748e-06,-3.09058e-25,3.12346e-41
0.0571918,0.000399644,8.6974e-06,-5.23653e-24,9.29921e-07,-3.39387e-25,3.18185e-41
0.0513847,0.000376265,6.89983e-06,5.7183e-24,6.97929e-07,3.08982e-25,6.67159e-42
0.0458384,0.000352411,5.34628e-06,4.09203e-26,5.09971e-07,1.68495e-27,1.34927e-45
0.0405459,0.000328203,4.04481e-06,3.09161e-24,3.622e-07,1.21564e-25,1.99775e-42
0.0355016,0.000303506,2.98452e-06,-2.79952e-25,2.49315e-07,8.79474e-27,4.12373e-42
0.030702,0.000277847,2.13989e-06,-3.28475e-24,1.65425e-07,-1.08813e-25,2.12696e-42
0.0261463,0.000250389,1.47898e-06,7.29611e-26,1.04833e-07,1.60982e-27,5.61576e-45
0.021837,0.000219888,9.68875e-07,2.03032e-24,6.24468e-08,4.22406e-26,8.96803e-43
0.0177814,0.000184932,5.8391e-07,-9.19844e-25,3.40912e-08,-1.40818e-26,2.38492e-42
0.0139922,0.00014485,3.12469e-07,-2.03291e-24,1.64727e-08,-3.98136e-26,1.87338e-42
0.0104895,0.000100951,1.44502e-07,8.41355e-25,6.67473e-09,1.4826e-26,3.79088e-43
0.00730173,5.82276e-05,5.61558e-08,8.22948e-28,2.06513e-09,2.99423e-29,2.08246e-46
0.00446588,2.50825e-05,1.67289e-08,1.22268e-27,4.20829e-10,3.52091e-29,1.51193e-46
0.00202579,6.65188e-06,2.89669e-09,3.63724e-28,4.29968e-11,4.28688e-30,5.79101e-48
2.57848e-05,0,0,0,0,0,0
