y,UPrime2Mean_0,UPrime2Mean_1,UPrime2Mean_2,UPrime2Mean_3,UPrime2Mean_4,UPrime2Mean_5
3.032,1.54732e-05,2.18929e-08,4.22268e-27,3.07315e-10,2.23883e-29,1.02506e-47
3.02729,2.85479e-05,1.13358e-07,2.86512e-26,2.898e-09,6.38958e-28,9.49822e-46
3.02196,1.83543e-05,2.93346e-07,2.06717e-26,1.10449e-08,-4.77969e-29,1.37451e-45
3.01608,-5.73058e-06,5.35972e-07,-3.74587e-27,2.77123e-08,-6.64593e-28,4.34875e-46
3.0097,-2.83293e-05,8.23553e-07,1.13007e-27,5.58388e-08,-4.41865e-28,5.18688e-47
3.00286,-4.67374e-05,1.14828e-06,-1.69381e-26,9.83635e-08,4.0652e-27,8.78793e-45
2.9956,-6.17877e-05,1.50409e-06,1.05083e-27,1.57904e-07,-5.68251e-28,1.76916e-44
2.98793,-7.43596e-05,1.88603e-06,5.38389e-26,2.36827e-07,-1.51517e-26,3.2851e-44
2.97986,-8.50476e-05,2.28982e-06,-3.05915e-26,3.37416e-07,1.03675e-26,1.10156e-43
2.9714,-9.42332e-05,2.71012e-06,-3.37812e-26,4.62321e-07,9.55328e-27,1.07684e-43
2.96254,-0.000102174,3.14192e-06,5.92567e-26,6.14392e-07,-2.14121e-26,3.7713e-44
2.95329,-0.000109073,3.58392e-06,-9.23363e-26,7.96258e-07,4.43403e-26,2.18382e-43
2.94362,-0.000115098,4.03728e-06,2.07692e-26,1.01074e-06,-1.75235e-26,5.01094e-43
2.93354,-0.000120383,4.50299e-06,6.02414e-26,1.26113e-06,-2.27786e-26,4.12469e-43
2.92303,-0.000125037,4.98144e-06,-8.03194e-26,1.55097e-06,4.95181e-26,1.13455e-43
2.91209,-0.000129149,5.47321e-06,4.04935e-26,1.88378e-06,-3.04503e-26,4.32834e-44
2.90069,-0.000132796,5.97954e-06,2.72557e-26,2.26327e-06,-2.89889e-26,1.41564e-43
2.88882,-0.000136046,6.5017e-06,-1.37303e-26,2.6935e-06,3.15818e-27,9.9315e-44
2.87647,-0.000138948,7.04059e-06,2.52162e-26,3.17866e-06,8.23968e-28,3.78851e-43
2.86364,-0.000141531,7.5956e-06,-4.42017e-26,3.72312e-06,1.37285e-25,9.4118e-43
2.85029,-0.000143807,8.16374e-06,-4.44761e-26,4.33184e-06,-8.28701e-26,1.60943e-42
2.83643,-0.00014578,8.74111e-06,3.76367e-26,5.01008e-06,-1.44848e-25,1.26863e-42
2.82202,-0.000147446,9.32379e-06,4.34247e-26,5.76328e-06,1.54423e-25,4.83461e-43
2.80707,-0.000148776,9.9053e-06,-1.35334e-26,6.59711e-06,-2.71184e-27,4.86589e-43
2.79156,-0.000149728,1.04769e-05,-1.79111e-25,7.51752e-06,-2.43894e-25,9.83938e-43
2.77547,-0.000150305,1.10304e-05,2.5105e-26,8.5307e-06,-7.16873e-27,1.33947e-42
2.75879,-0.000150584,1.15574e-05,1.59097e-25,9.64304e-06,1.55942e-25,5.81803e-43
2.7415,-0.000150672,1.20493e-05,-2.44533e-25,1.08609e-05,-1.64215e-25,5.60686e-43
2.7236,-0.000150672,1.2498e-05,5.6407e-27,1.21908e-05,-8.38048e-27,1.14351e-42
2.70507,-0.00015067,1.28976e-05,-2.58222e-26,1.36391e-05,-5.53358e-27,1.07294e-42
2.68591,-0.000150742,1.32441e-05,3.71088e-26,1.52123e-05,1.1746e-26,1.01357e-42
2.66609,-0.000150958,1.35355e-05,1.01658e-24,1.69163e-05,4.89183e-25,1.45143e-42
2.64561,-0.000151385,1.37711e-05,-2.66257e-26,1.87561e-05,8.30354e-27,1.66841e-42
2.62446,-0.000152082,1.39502e-05,-7.0543e-25,2.0736e-05,-3.00263e-25,7.54109e-43
2.60263,-0.000153101,1.40713e-05,4.2797e-25,2.28591e-05,1.18927e-25,2.44744e-43
2.58012,-0.00015449,1.41319e-05,-1.04124e-25,2.51275e-05,-1.81418e-26,4.81953e-43
2.55691,-0.000156295,1.41285e-05,-4.85388e-25,2.75421e-05,-1.40464e-25,7.03096e-43
2.53301,-0.000158558,1.40593e-05,3.18626e-26,3.01026e-05,6.01865e-27,8.64849e-43
2.50841,-0.000161319,1.39242e-05,-4.17683e-27,3.28076e-05,1.47554e-26,4.16731e-43
2.48311,-0.000164612,1.37243e-05,-6.05299e-25,3.56549e-05,-9.41012e-26,1.87967e-43
2.4571,-0.000168459,1.34615e-05,-3.24795e-26,3.86405e-05,-6.75171e-27,4.24285e-43
2.43039,-0.00017287,1.3139e-05,-5.45305e-26,4.17585e-05,3.98168e-26,1.249e-42
2.40298,-0.000177839,1.27621e-05,-1.34054e-24,4.50013e-05,-1.06037e-25,1.24919e-42
2.37487,-0.000183355,1.23378e-05,1.94188e-24,4.83601e-05,1.38106e-25,1.84701e-42
2.34607,-0.000189378,1.18704e-05,-1.35299e-24,5.18256e-05,-3.53825e-26,6.02903e-42
2.31659,-0.000195846,1.13615e-05,-2.72679e-24,5.53872e-05,-1.84894e-25,5.13286e-42
2.28644,-0.000202684,1.08135e-05,2.60762e-24,5.90288e-05,1.10225e-25,1.40665e-42
2.25563,-0.000209797,1.02278e-05,-1.32025e-24,6.27278e-05,5.34487e-26,2.22799e-42
2.22416,-0.000217083,9.60959e-06,-1.38233e-24,6.64604e-05,3.81383e-26,2.41164e-42
2.19207,-0.000224441,8.96503e-06,2.38673e-24,7.01999e-05,7.54192e-27,2.41686e-42
2.15936,-0.000231767,8.30418e-06,1.13413e-24,7.39145e-05,-3.83868e-26,1.54236e-42
2.12605,-0.000238954,7.63784e-06,-9.57441e-25,7.75717e-05,1.09253e-25,8.13602e-43
2.09218,-0.000245894,6.97279e-06,-4.92817e-26,8.11387e-05,-1.45137e-26,1.49737e-42
2.05775,-0.00025248,6.31707e-06,8.56237e-25,8.45809e-05,-1.10532e-25,8.01845e-43
2.0228,-0.000258602,5.68124e-06,2.48092e-26,8.78614e-05,-8.71164e-27,1.87504e-43
1.98736,-0.000264114,5.08083e-06,5.88574e-25,9.09428e-05,-2.47878e-25,8.06679e-43
1.95145,-0.000268809,4.53465e-06,5.2432e-25,9.37888e-05,-1.39914e-25,2.17405e-42
1.91511,-0.000272455,4.05809e-06,-1.71901e-26,9.63635e-05,6.93176e-26,1.46518e-42
1.87837,-0.000274848,3.65907e-06,-6.1601e-26,9.86341e-05,-1.72968e-26,1.99129e-45
1.84127,-0.000275828,3.33851e-06,2.42554e-25,0.000100575,2.67774e-25,7.84956e-43
1.80383,-0.000275271,3.09161e-06,-9.48233e-25,0.000102164,-5.15937e-25,4.24342e-42
1.76611,-0.000273069,2.90953e-06,4.55397e-25,0.000103383,4.39547e-26,6.92726e-42
1.72814,-0.000269149,2.77874e-06,3.99781e-24,0.000104221,1.71618e-24,7.24942e-42
1.68996,-0.000263483,2.68255e-06,-6.15187e-25,0.000104667,-5.84993e-26,8.17495e-42
1.65161,-0.000256072,2.60838e-06,5.64583e-25,0.000104724,-2.32367e-26,8.78495e-42
1.61313,-0.000246932,2.54716e-06,1.30332e-24,0.000104396,3.06302e-25,9.74131e-42
1.57457,-0.000236126,2.4861e-06,-1.02393e-23,0.000103694,-2.02218e-24,1.2616e-41
1.53598,-0.000223792,2.40773e-06,-6.06488e-24,0.000102632,-1.13408e-24,8.33402e-42
1.49739,-0.000210021,2.30148e-06,7.21862e-24,0.000101227,1.10455e-24,4.99666e-42
1.45884,-0.000194859,2.16691e-06,5.15053e-24,9.94965e-05,8.11782e-25,3.89469e-42
1.42039,-0.000178425,2.00276e-06,-2.7956e-24,9.74667e-05,-2.47625e-25,1.12074e-42
1.38207,-0.00016086,1.80707e-06,-3.02772e-24,9.51629e-05,-2.6932e-25,1.28615e-42
1.34393,-0.000142327,1.57222e-06,6.02699e-24,9.26118e-05,4.31331e-25,4.09671e-42
1.30602,-0.000122992,1.29936e-06,6.01221e-24,8.98445e-05,4.17302e-25,4.11783e-42
1.26836,-0.000102966,1.00522e-06,-3.17167e-24,8.6892e-05,-1.76163e-25,1.32244e-42
1.231,-8.23549e-05,7.03495e-07,-2.99087e-24,8.37859e-05,-1.45192e-25,1.16109e-42
1.19399,-6.12886e-05,4.0174e-07,-3.34297e-25,8.05577e-05,-1.87682e-26,1.75471e-43
1.15735,-3.99035e-05,1.04967e-07,-3.09203e-24,7.72377e-05,-7.34119e-26,2.03803e-42
1.12112,-1.83271e-05,-1.81053e-07,-6.49153e-24,7.38548e-05,-1.58199e-25,7.62185e-42
1.08535,3.31407e-06,-4.53431e-07,1.33024e-23,7.04379e-05,7.13222e-26,2.21564e-41
1.05005,2.48754e-05,-7.08816e-07,1.65447e-23,6.70143e-05,1.45286e-25,1.6342e-41
1.01526,4.62303e-05,-9.43355e-07,-1.06503e-23,6.36042e-05,7.3029e-26,4.33987e-42
0.981008,6.72704e-05,-1.15521e-06,-1.00977e-23,6.02274e-05,9.72401e-26,4.45038e-42
0.947323,8.78886e-05,-1.34116e-06,3.32777e-24,5.69035e-05,-1.10366e-25,8.77387e-43
0.914227,0.000107987,-1.49671e-06,-1.81311e-25,5.36474e-05,1.57202e-26,1.47082e-42
0.881742,0.000127483,-1.61722e-06,3.35979e-24,5.04717e-05,-1.07359e-25,2.09657e-42
0.849888,0.000146305,-1.69931e-06,-3.08191e-26,4.73871e-05,2.79677e-27,2.7457e-42
0.818683,0.000164396,-1.74065e-06,-6.64022e-24,4.44026e-05,2.4221e-25,1.44616e-42
0.788143,0.000181723,-1.74057e-06,-5.89266e-26,4.15256e-05,7.96978e-27,7.45223e-44
0.75828,0.000198272,-1.70027e-06,3.26329e-24,3.87625e-05,-8.69266e-26,6.62814e-43
0.729106,0.000214046,-1.62156e-06,3.14899e-24,3.6118e-05,-8.35905e-26,6.61928e-43
0.70063,0.000229067,-1.50728e-06,-9.93612e-24,3.35958e-05,2.9794e-25,3.26566e-42
0.67286,0.000243372,-1.36156e-06,-3.382e-24,3.1198e-05,9.79801e-26,4.68637e-42
0.6458,0.000257009,-1.18912e-06,6.3897e-24,2.89257e-05,-1.9577e-25,1.42894e-42
0.619454,0.000270034,-9.96131e-07,4.78371e-26,2.67788e-05,-1.90326e-27,2.49562e-46
0.593824,0.000282507,-7.89158e-07,-1.03501e-25,2.47566e-05,1.88262e-28,5.1991e-45
0.568909,0.000294483,-5.73752e-07,3.14181e-24,2.28574e-05,-8.82512e-26,1.6893e-42
0.544707,0.000306014,-3.56525e-07,-3.39888e-24,2.10789e-05,2.39944e-26,5.5316e-42
0.521216,0.00031718,-1.44105e-07,-1.60276e-24,1.94194e-05,4.94744e-26,6.60407e-42
0.498429,0.000328052,6.21533e-08,3.31934e-24,1.78762e-05,-3.717e-26,3.7513e-42
0.476342,0.000338697,2.6094e-07,-1.71382e-24,1.64448e-05,2.5938e-26,9.95464e-43
0.454948,0.000349153,4.44877e-07,-1.74682e-24,1.51199e-05,1.33192e-26,6.97426e-43
0.434236,0.000359406,6.0959e-07,2.37351e-26,1.38955e-05,2.9214e-27,1.32318e-42
0.414199,0.000369457,7.55993e-07,3.60226e-24,1.27653e-05,-1.83551e-26,1.18456e-42
0.394826,0.000379324,8.86106e-07,1.86943e-24,1.17233e-05,-7.83893e-27,5.77552e-43
0.376106,0.000389018,1.00188e-06,-2.84432e-26,1.07635e-05,-1.41301e-27,3.45648e-44
0.358026,0.000398547,1.10521e-06,-1.93347e-24,9.88014e-06,-4.22175e-28,5.16054e-43
0.340574,0.000407913,1.19868e-06,-1.84082e-24,9.06753e-06,1.03415e-27,5.00142e-43
0.323738,0.000417125,1.28579e-06,-4.08021e-28,8.32023e-06,-3.01946e-29,2.2799e-46
0.307504,0.000426202,1.36985e-06,1.88504e-24,7.63265e-06,5.72948e-27,4.08692e-43
0.291857,0.000435182,1.455e-06,-2.03946e-24,6.99964e-06,-3.04174e-26,1.18546e-42
0.276783,0.000444105,1.54614e-06,-1.87792e-24,6.4164e-06,-4.8086e-27,1.17823e-42
0.262268,0.000453013,1.64618e-06,4.09662e-24,5.87817e-06,6.16209e-26,7.84873e-43
0.248298,0.000461939,1.75542e-06,-1.10001e-24,5.38028e-06,-1.02821e-26,8.96723e-43
0.234856,0.000470899,1.87414e-06,-3.11183e-24,4.9189e-06,-3.93807e-26,5.26893e-43
0.221929,0.000479892,2.00234e-06,7.26465e-27,4.49085e-06,-1.57701e-26,1.04239e-42
0.209502,0.000488914,2.1379e-06,1.13091e-24,4.09287e-06,8.70001e-27,1.66755e-42
0.197559,0.000497953,2.27882e-06,1.11248e-24,3.72222e-06,2.53357e-26,6.41408e-43
0.186085,0.00050699,2.42372e-06,-1.21919e-24,3.37677e-06,-1.83795e-26,1.50767e-43
0.175066,0.000516002,2.57039e-06,-1.63826e-26,3.05463e-06,-5.02987e-28,2.90011e-43
0.164488,0.000524961,2.71612e-06,1.16845e-24,2.75435e-06,1.7414e-26,1.42723e-43
0.154335,0.000533822,2.85861e-06,-1.2588e-24,2.47491e-06,-1.61741e-26,1.45818e-43
0.144594,0.000542523,2.99561e-06,9.90728e-26,2.21556e-06,1.17668e-27,3.0276e-43
0.135251,0.000550985,3.12447e-06,-1.84557e-26,1.97558e-06,1.04191e-26,4.29611e-43
0.126291,0.000559107,3.24237e-06,4.10967e-26,1.75421e-06,1.18502e-30,5.41143e-43
0.117702,0.000566762,3.34728e-06,1.3987e-24,1.55075e-06,6.67659e-27,2.68513e-43
0.10947,0.000573774,3.43771e-06,5.91736e-27,1.36442e-06,-4.60422e-29,9.0412e-46
0.101583,0.000579887,3.51152e-06,9.03235e-25,1.19432e-06,9.26327e-27,6.74943e-44
0.0940269,0.00058477,3.5622e-06,-9.81383e-25,1.03965e-06,-9.94433e-27,3.31974e-43
0.0867907,0.000588083,3.57888e-06,-8.65721e-25,8.9941e-07,-8.9921e-27,3.35592e-43
0.0798625,0.000589584,3.55499e-06,1.01664e-24,7.72021e-07,1.04683e-26,7.05926e-44
0.0732309,0.000589102,3.48875e-06,1.22072e-24,6.56179e-07,7.0837e-27,8.70627e-44
0.066885,0.000586441,3.3785e-06,-1.73034e-25,5.51417e-07,-1.50896e-27,1.84761e-43
0.0608144,0.000581373,3.22754e-06,-1.38972e-24,4.57381e-07,-8.37755e-27,9.8044e-44
0.0550095,0.000573635,3.04369e-06,9.55003e-25,3.73638e-07,8.79075e-27,3.12934e-44
0.0494612,0.000562861,2.83304e-06,9.34092e-25,2.99779e-07,8.57867e-27,3.13689e-44
0.0441614,0.000548491,2.59882e-06,-6.24195e-26,2.35374e-07,-3.36185e-27,8.44416e-44
0.0391031,0.000529648,2.34178e-06,-3.22987e-24,1.80026e-07,-2.68189e-26,1.97153e-43
0.0342805,0.00050498,2.05908e-06,-1.28071e-24,1.33294e-07,-1.02532e-26,1.49567e-43
0.0296899,0.000472588,1.74581e-06,1.93325e-24,9.46759e-08,1.50841e-26,8.65508e-44
0.0253295,0.000430353,1.40395e-06,-1.99091e-24,6.37068e-08,-1.0845e-26,9.6649e-44
0.0212009,0.000376615,1.04991e-06,1.74938e-25,3.99564e-08,-2.05624e-28,1.10225e-43
0.0173095,0.000311006,7.102e-07,2.19208e-24,2.28139e-08,1.23138e-26,6.33471e-44
0.0136659,0.000235922,4.17692e-07,-3.81777e-25,1.14162e-08,-1.56039e-27,6.38647e-45
0.0102871,0.000157974,2.04516e-07,9.38634e-26,4.70591e-09,6.84382e-29,2.33979e-44
0.00719772,8.78691e-05,7.94564e-08,3.63056e-25,1.44805e-09,1.3417e-27,1.8999e-44
0.00443062,3.69928e-05,2.20944e-08,-1.14272e-25,2.85807e-10,-2.89443e-28,1.98958e-45
0.00202579,9.70225e-06,3.28835e-09,-1.79516e-27,2.69058e-11,-2.80094e-30,9.56296e-49
2.57848e-05,0,0,0,0,0,0
