y,U_0,U_1,U_2
3.032,-0.00022062,1.70289e-06,1.87524e-27
3.02782,-0.000397181,5.26457e-06,4.39852e-26
3.02345,-0.000522385,9.76669e-06,2.94343e-26
3.01889,-0.000586868,1.35966e-05,-1.37322e-26
3.01413,-0.000588823,1.49723e-05,-1.04292e-26
3.00916,-0.000543388,1.2856e-05,-1.33205e-27
3.00397,-0.00047087,7.1135e-06,-2.26667e-24
2.99856,-0.000382478,-2.19679e-06,-5.63297e-25
2.99291,-0.000280971,-1.51867e-05,-9.01632e-25
2.98702,-0.000165417,-3.21054e-05,-2.54913e-24
2.98087,-3.35492e-05,-5.33286e-05,1.87506e-24
2.97447,0.000117509,-7.93924e-05,1.8244e-24
2.96779,0.000291111,-0.000111022,1.2555e-24
2.96083,0.000491161,-0.000149169,2.42791e-24
2.95359,0.000722263,-0.000195052,-1.01417e-24
2.94605,0.000989887,-0.000250222,-4.04958e-24
2.93819,0.00130057,-0.000316616,-1.72576e-24
2.93002,0.00166209,-0.000396641,1.75783e-24
2.92153,0.00208367,-0.000493242,1.63022e-24
2.91269,0.00257609,-0.000609984,4.00459e-31
2.90351,0.00315156,-0.000751099,4.08841e-29
2.89397,0.00382353,-0.000921779,-7.97884e-30
2.88406,0.00460636,-0.00112791,-3.62579e-26
2.87378,0.0055171,-0.00137666,7.93819e-25
2.86311,0.00657789,-0.00167728,2.9519e-25
2.85204,0.00781489,-0.0020399,-4.24619e-25
2.84057,0.00925797,-0.00247609,-2.83878e-25
2.82868,0.0109356,-0.00299757,-4.04583e-25
2.81638,0.0128648,-0.00361282,2.42445e-24
2.80364,0.0150461,-0.00432639,-8.34353e-26
2.79047,0.017458,-0.00513639,-6.16746e-24
2.77685,0.0200565,-0.00603321,4.09049e-24
2.76278,0.0227813,-0.00700094,3.74316e-24
2.74826,0.0255619,-0.00801827,-4.02368e-24
2.73327,0.0283232,-0.00905996,5.28327e-28
2.71782,0.0309914,-0.0100996,-1.64371e-26
2.70189,0.0334994,-0.0111108,-1.64875e-26
2.68549,0.0357933,-0.0120704,-9.3887e-27
2.66862,0.0378371,-0.0129606,-8.8214e-27
2.65127,0.0396165,-0.0137697,-1.19232e-27
2.63345,0.0411373,-0.0144941,-1.64271e-27
2.61515,0.0424172,-0.0151341,1.07525e-26
2.59638,0.0434771,-0.0156932,-9.65618e-27
2.57715,0.0443344,-0.0161751,-1.48315e-23
2.55745,0.0450031,-0.0165832,-6.14181e-25
2.5373,0.0454981,-0.0169219,1.43564e-23
2.51669,0.0458361,-0.017197,-2.24298e-28
2.49565,0.046035,-0.0174154,-1.4866e-25
2.47418,0.0461124,-0.0175842,2.47126e-26
2.4523,0.0460848,-0.0177104,6.12617e-23
2.43001,0.0459666,-0.0178007,6.68434e-23
2.40733,0.0457701,-0.0178607,-1.21173e-22
2.38428,0.0455057,-0.0178953,-6.51945e-23
2.36088,0.0451819,-0.0179083,6.29744e-23
2.33714,0.0448054,-0.0179031,4.296e-26
2.31309,0.0443821,-0.0178821,-6.49343e-23
2.28875,0.0439166,-0.0178474,5.9929e-23
2.26414,0.0434131,-0.0178006,6.61111e-23
2.23928,0.042875,-0.0177428,-6.12364e-23
2.2142,0.0423057,-0.0176751,-7.61124e-26
2.18893,0.0417082,-0.0175983,-1.39806e-26
2.16349,0.0410855,-0.0175131,2.42033e-25
2.13791,0.0404408,-0.0174201,4.88546e-23
2.11222,0.0397769,-0.0173197,2.39134e-24
2.08645,0.0390971,-0.0172124,-4.77597e-23
2.06062,0.0384046,-0.0170986,-1.04122e-28
2.03477,0.0377031,-0.0169788,-1.85349e-28
2.00893,0.0369962,-0.0168534,-8.77158e-29
1.98312,0.036288,-0.016723,6.23764e-26
1.95738,0.0355808,-0.0165879,8.02351e-26
1.93173,0.034872,-0.0164477,-1.16471e-25
1.9062,0.0341555,-0.0163014,-4.14748e-23
1.88082,0.0334274,-0.0161484,3.48805e-23
1.85562,0.0326874,-0.0159887,4.2844e-23
1.83062,0.0319371,-0.0158225,-5.81101e-23
1.80586,0.0311791,-0.0156503,1.46278e-23
1.78135,0.0304162,-0.0154722,2.27836e-23
1.75711,0.0296515,-0.0152888,-1.53019e-23
1.73318,0.0288882,-0.0151005,-5.31817e-26
1.70957,0.0281297,-0.0149075,-3.4524e-28
1.6863,0.0273797,-0.0147102,2.44547e-26
1.6634,0.0266419,-0.0145089,-2.5375e-23
1.64087,0.0259203,-0.0143035,-1.00177e-24
1.61873,0.0252184,-0.0140941,2.53354e-23
1.59701,0.0245393,-0.0138803,-3.93952e-23
1.5757,0.0238852,-0.013662,-1.79449e-24
1.55483,0.0232579,-0.0134387,3.90903e-23
1.53439,0.0226582,-0.0132103,-1.92436e-28
1.51442,0.0220865,-0.0129764,-7.57112e-26
1.49489,0.0215427,-0.0127367,-5.49901e-23
1.47584,0.0210263,-0.0124912,-2.31396e-24
1.45725,0.020537,-0.0122396,-5.61781e-24
1.43914,0.0200751,-0.0119821,6.02241e-23
1.4215,0.0196407,-0.0117191,6.23947e-23
1.40433,0.0192339,-0.0114505,5.42083e-24
1.38764,0.0188551,-0.0111767,7.30508e-23
1.37143,0.0185045,-0.010898,-6.55872e-23
1.35568,0.0181826,-0.0106148,-1.48173e-22
1.34041,0.01789,-0.0103277,7.93633e-23
1.3256,0.0176275,-0.0100375,1.65158e-22
1.31125,0.0173958,-0.00974482,-8.03472e-23
1.29736,0.0171955,-0.00945058,-1.81107e-22
1.28391,0.017027,-0.00915557,-1.33466e-24
1.27091,0.0168905,-0.00886062,9.62713e-23
1.25834,0.0167859,-0.00856651,1.10095e-22
1.2462,0.0167128,-0.008274,-1.13288e-22
1.23447,0.0166706,-0.00798384,-1.12794e-22
1.22316,0.0166587,-0.0076967,-8.39331e-24
1.21225,0.0166762,-0.00741318,-1.31101e-22
1.20173,0.0167223,-0.00713373,2.58726e-22
1.19159,0.0167958,-0.00685873,1.32186e-22
1.18182,0.0168954,-0.00658846,-1.35845e-22
1.17242,0.0170194,-0.00632313,1.48263e-22
1.16337,0.017166,-0.0060629,4.4849e-25
1.15467,0.0173331,-0.00580785,-1.50463e-22
1.1463,0.0175182,-0.00555799,1.67251e-25
1.13825,0.0177183,-0.00531324,1.0523e-26
1.13052,0.0179302,-0.00507343,-1.69198e-22
1.1231,0.01815,-0.00483844,-4.98887e-25
1.11596,0.0183736,-0.00460815,1.71092e-22
1.10912,0.0185969,-0.00438228,-4.64016e-26
1.10255,0.0188164,-0.00416082,1.51047e-25
1.09624,0.0190291,-0.00394393,1.79906e-22
1.0902,0.0192329,-0.00373168,1.83783e-22
1.0844,0.0194256,-0.00352436,5.7587e-24
1.07884,0.0196047,-0.00332219,-2.00538e-22
1.07351,0.0197674,-0.00312518,-2.04371e-22
1.06841,0.019911,-0.00293334,-3.59369e-25
1.06352,0.0200327,-0.00274668,-2.00379e-25
1.05884,0.0201299,-0.00256523,7.54691e-25
1.05435,0.0201999,-0.00238899,-1.67606e-25
1.05006,0.02024,-0.00221794,-9.87336e-25
1.04595,0.0202472,-0.00205205,-3.31849e-22
1.04202,0.0202185,-0.00189127,2.93431e-23
1.03825,0.0201504,-0.00173553,3.62774e-22
1.03465,0.0200388,-0.00158476,5.19338e-25
1.03121,0.0198787,-0.00143887,-9.89754e-26
1.02792,0.0196633,-0.00129774,-8.59461e-25
1.02477,0.0193834,-0.00116124,-3.10813e-26
1.02176,0.0190248,-0.00102922,-1.14997e-25
1.01888,0.0185647,-0.000901454,-5.91767e-22
1.01613,0.0179636,-0.00077769,1.02763e-21
1.0135,0.0171463,-0.000657376,4.32997e-22
1.01098,0.0159621,-0.000538765,-1.1973e-21
1.00858,0.0141295,-0.000418124,-2.87225e-21
1.00629,0.0113549,-0.000295299,9.7475e-22
1.00409,0.00777789,-0.000180725,-4.01048e-22
1.002,0.00390818,-8.32438e-05,-1.32158e-21
1,0,0,0
