y,U_0,U_1,U_2
3.032,0.00205687,-8.27229e-08,2.4889e-25
3.02729,0.00441393,-4.13817e-07,4.01254e-24
3.02196,0.00708408,-1.2706e-06,3.36716e-25
3.01608,0.00981893,-2.92712e-06,-3.42727e-24
3.0097,0.0122935,-5.5114e-06,-1.79406e-24
3.00286,0.0143718,-9.09923e-06,1.22834e-23
2.9956,0.0161143,-1.38124e-05,4.50356e-25
2.98793,0.0176088,-1.97425e-05,-3.7498e-23
2.97986,0.0189174,-2.69014e-05,1.79576e-23
2.9714,0.0200833,-3.52251e-05,2.26114e-23
2.96254,0.0211354,-4.46125e-05,-3.53866e-23
2.95329,0.0220927,-5.49334e-05,6.16673e-23
2.94362,0.0229673,-6.60344e-05,-1.18779e-23
2.93354,0.0237666,-7.77455e-05,-3.44957e-23
2.92303,0.0244949,-8.98869e-05,5.52985e-23
2.91209,0.0251547,-0.000102283,-2.5261e-23
2.90069,0.0257483,-0.000114784,-2.62365e-23
2.88882,0.0262792,-0.000127288,3.08925e-25
2.87647,0.0267549,-0.000139799,3.58521e-24
2.86364,0.0271849,-0.000152393,7.60367e-23
2.85029,0.0275749,-0.000165082,-3.80511e-23
2.83643,0.0279277,-0.000177845,-7.61704e-23
2.82202,0.0282459,-0.000190681,6.86763e-23
2.80707,0.028532,-0.000203602,1.67016e-24
2.79156,0.0287884,-0.000216624,-9.20983e-23
2.77547,0.0290171,-0.000229771,-5.70113e-24
2.75879,0.0292202,-0.00024307,5.4997e-23
2.7415,0.0293997,-0.000256551,-5.3624e-23
2.7236,0.0295572,-0.000270245,-5.47773e-24
2.70507,0.0296946,-0.000284185,6.35315e-24
2.68591,0.0298132,-0.000298399,3.55124e-25
2.66609,0.0299144,-0.000312918,1.25773e-22
2.64561,0.0299996,-0.000327769,5.17496e-24
2.62446,0.0300699,-0.000342978,-7.59434e-23
2.60263,0.0301262,-0.00035857,3.65988e-23
2.58012,0.0301694,-0.000374566,-4.91803e-24
2.55691,0.0302004,-0.000390986,-3.50288e-23
2.53301,0.0302197,-0.000407848,2.45093e-24
2.50841,0.030228,-0.000425166,-2.1814e-24
2.48311,0.0302256,-0.000442955,-2.94994e-23
2.4571,0.0302129,-0.000461224,-3.00292e-24
2.43039,0.0301902,-0.000479982,-5.58294e-24
2.40298,0.0301577,-0.000499235,-6.21343e-23
2.37487,0.0301153,-0.000518986,8.32215e-23
2.34607,0.0300633,-0.000539237,-5.16113e-23
2.31659,0.0300015,-0.000559985,-1.0966e-22
2.28644,0.0299299,-0.000581225,1.08224e-22
2.25563,0.0298483,-0.000602953,-5.93081e-23
2.22416,0.0297566,-0.000625158,-5.90223e-23
2.19207,0.0296543,-0.000647829,1.07681e-22
2.15936,0.0295414,-0.000670953,5.51238e-23
2.12605,0.0294174,-0.000694517,-5.57746e-23
2.09218,0.029282,-0.000718504,1.34578e-24
2.05775,0.0291346,-0.000742899,5.30919e-23
2.0228,0.0289749,-0.000767686,2.5354e-24
1.98736,0.0288021,-0.00079285,6.31108e-23
1.95145,0.0286157,-0.000818381,5.15304e-23
1.91511,0.0284149,-0.000844269,-4.11502e-24
1.87837,0.0281986,-0.00087051,5.70441e-25
1.84127,0.0279656,-0.000897109,-5.54498e-23
1.80383,0.0277146,-0.000924076,6.59104e-23
1.76611,0.0274438,-0.000951423,-2.24812e-24
1.72814,0.0271517,-0.000979149,-2.53446e-22
1.68996,0.0268367,-0.00100723,9.49443e-24
1.65161,0.0264974,-0.00103559,-1.51651e-24
1.61313,0.0261326,-0.00106414,-5.61731e-23
1.57457,0.0257414,-0.00109268,3.34086e-22
1.53598,0.0253235,-0.00112092,1.95993e-22
1.49739,0.0248791,-0.00114847,-2.00901e-22
1.45884,0.0244078,-0.00117511,-1.44401e-22
1.42039,0.0239064,-0.0012009,6.63987e-23
1.38207,0.0233705,-0.00122604,7.3377e-23
1.34393,0.0227964,-0.00125061,-1.38733e-22
1.30602,0.022181,-0.00127444,-1.39457e-22
1.26836,0.0215217,-0.00129728,7.20166e-23
1.231,0.0208172,-0.00131885,6.75529e-23
1.19399,0.0200672,-0.00133879,9.42065e-24
1.15735,0.0192736,-0.00135672,7.16556e-23
1.12112,0.0184395,-0.00137223,1.71134e-22
1.08535,0.0175694,-0.00138491,-3.3265e-22
1.05005,0.0166692,-0.00139437,-4.33e-22
1.01526,0.0157461,-0.00140026,2.70144e-22
0.981008,0.0148081,-0.00140231,2.59347e-22
0.947323,0.0138639,-0.00140032,-8.23528e-23
0.914227,0.0129222,-0.00139419,3.04265e-24
0.881742,0.0119911,-0.00138394,-8.87225e-23
0.849888,0.011078,-0.00136968,-3.6051e-24
0.818683,0.0101887,-0.00135162,1.62744e-22
0.788143,0.00932796,-0.00133005,1.21319e-24
0.75828,0.00849979,-0.00130528,-7.91491e-23
0.729106,0.00770834,-0.00127764,-7.77763e-23
0.70063,0.00695872,-0.00124738,2.18204e-22
0.67286,0.0062572,-0.00121473,8.43538e-23
0.6458,0.00560985,-0.00117989,-1.30826e-22
0.619454,0.00501951,-0.00114327,-8.54749e-25
0.593824,0.00448168,-0.0011055,1.93453e-24
0.568909,0.00398555,-0.00106701,-5.15814e-23
0.544707,0.00352194,-0.00102817,5.63679e-23
0.521216,0.00308715,-0.000989392,2.86613e-23
0.498429,0.00267964,-0.000950835,-5.58235e-23
0.476342,0.00229791,-0.000912597,2.52343e-23
0.454948,0.00194043,-0.00087479,2.45283e-23
0.434236,0.00160573,-0.000837513,4.00599e-25
0.414199,0.00129236,-0.000800852,-4.89544e-23
0.394826,0.000998909,-0.000764877,-2.56632e-23
0.376106,0.000724048,-0.000729648,-5.56894e-26
0.358026,0.000466498,-0.000695212,2.43533e-23
0.340574,0.00022505,-0.000661608,2.3263e-23
0.323738,-1.43904e-06,-0.000628867,-1.49204e-27
0.307504,-0.000214039,-0.000597012,-2.27129e-23
0.291857,-0.000413755,-0.000566061,2.53619e-23
0.276783,-0.000601521,-0.000536024,2.2594e-23
0.262268,-0.000778209,-0.000506909,-5.07619e-23
0.248298,-0.000944629,-0.000478717,1.21671e-23
0.234856,-0.00110153,-0.000451446,3.70096e-23
0.221929,-0.00124961,-0.000425093,1.77887e-24
0.209502,-0.00138951,-0.000399649,-1.26253e-23
0.197559,-0.00152181,-0.000375105,-1.42357e-23
0.186085,-0.00164707,-0.000351448,1.46783e-23
0.175066,-0.00176578,-0.000328665,2.88002e-25
0.164488,-0.0018784,-0.00030674,-1.39402e-23
0.154335,-0.00198534,-0.000285657,1.51485e-23
0.144594,-0.002087,-0.000265399,-1.04333e-24
0.135251,-0.0021837,-0.000245948,-6.99853e-25
0.126291,-0.00227577,-0.000227286,-3.49209e-25
0.117702,-0.00236347,-0.000209395,-1.56043e-23
0.10947,-0.00244704,-0.000192254,-4.7344e-26
0.101583,-0.00252666,-0.000175848,-1.08845e-23
0.0940269,-0.00260249,-0.000160156,1.17563e-23
0.0867907,-0.00267462,-0.000145163,1.03917e-23
0.0798625,-0.00274307,-0.000130851,-1.22697e-23
0.0732309,-0.00280775,-0.000117207,-1.40637e-23
0.066885,-0.00286845,-0.000104216,1.99883e-24
0.0608144,-0.00292471,-9.18697e-05,1.59896e-23
0.0550095,-0.00297575,-8.01603e-05,-1.17063e-23
0.0494612,-0.00302018,-6.90872e-05,-1.14991e-23
0.0441614,-0.00305558,-5.86573e-05,1.35816e-24
0.0391031,-0.0030776,-4.88882e-05,4.42067e-23
0.0342805,-0.00307839,-3.98093e-05,1.49327e-23
0.0296899,-0.0030439,-3.14633e-05,-2.98196e-23
0.0253295,-0.00295164,-2.39223e-05,3.59316e-23
0.0212009,-0.00277513,-1.73251e-05,-6.31714e-24
0.0173095,-0.00250048,-1.18439e-05,-4.39553e-23
0.0136659,-0.00213963,-7.5539e-06,7.61965e-24
0.0102871,-0.00172153,-4.386e-06,-2.77325e-24
0.00719772,-0.00127573,-2.20987e-06,-7.25979e-24
0.00443062,-0.000827878,-8.82588e-07,3.2187e-24
0.00202579,-0.000402035,-2.21848e-07,8.80906e-26
2.57848e-05,0,0,0
