y,U_0,U_1,U_2
3.032,0.002978,-7.68904e-07,-1.60877e-23
3.02765,0.00607776,-2.54385e-06,-4.28517e-25
3.02299,0.00926923,-5.37981e-06,-4.45509e-23
3.01803,0.0123415,-9.04974e-06,-9.74148e-24
3.01278,0.0150604,-1.31217e-05,4.93876e-23
3.00726,0.0173388,-1.72265e-05,-7.37261e-23
3.00146,0.0192231,-2.10928e-05,-9.49218e-24
2.99539,0.0207826,-2.44602e-05,6.25677e-23
2.98903,0.0220774,-2.71288e-05,-9.62395e-25
2.98239,0.0231591,-2.89698e-05,1.63231e-22
2.97546,0.0240709,-2.99299e-05,1.53871e-23
2.96823,0.0248481,-3.00355e-05,-2.82065e-22
2.96069,0.0255214,-2.93884e-05,-1.41005e-23
2.95282,0.0261157,-2.81136e-05,1.19803e-22
2.94463,0.0266489,-2.63269e-05,-1.57845e-24
2.9361,0.0271325,-2.41198e-05,-3.8557e-22
2.92722,0.0275751,-2.156e-05,1.59658e-22
2.91798,0.0279833,-1.87127e-05,5.47879e-22
2.90836,0.0283618,-1.56397e-05,-3.15456e-22
2.89837,0.0287143,-1.2396e-05,-1.45637e-23
2.88797,0.0290436,-9.02907e-06,1.62876e-22
2.87718,0.0293515,-5.57876e-06,1.34318e-22
2.86596,0.0296395,-2.07735e-06,6.49413e-24
2.85432,0.0299085,1.45015e-06,-5.31492e-22
2.84224,0.0301591,4.98543e-06,-2.67407e-22
2.82971,0.0303919,8.51626e-06,4.78017e-22
2.81672,0.0306073,1.20356e-05,2.41411e-22
2.80326,0.0308056,1.5541e-05,-4.46511e-22
2.78932,0.0309872,1.90333e-05,-5.01202e-24
2.77489,0.0311525,2.25158e-05,2.08599e-22
2.75996,0.0313022,2.59937e-05,-2.05868e-22
2.74453,0.0314368,2.94729e-05,3.6521e-22
2.72858,0.0315569,3.29593e-05,3.81947e-22
2.7121,0.0316634,3.64584e-05,-3.51744e-22
2.6951,0.031757,3.99744e-05,-7.88231e-24
2.67756,0.0318385,4.35101e-05,9.33803e-24
2.65949,0.0319087,4.70665e-05,-1.77428e-22
2.64086,0.0319682,5.06424e-05,-5.8974e-22
2.6217,0.0320178,5.42348e-05,3.44601e-22
2.60198,0.0320581,5.7838e-05,8.71732e-22
2.58171,0.0320897,6.1444e-05,-5.63031e-22
2.56089,0.0321131,6.50423e-05,-3.25299e-22
2.53952,0.0321286,6.86201e-05,-2.42143e-23
2.51761,0.0321368,7.21614e-05,3.33075e-23
2.49515,0.0321377,7.56477e-05,2.98921e-22
2.47216,0.0321318,7.90576e-05,-1.65288e-23
2.44864,0.0321191,8.23666e-05,1.85562e-22
2.4246,0.0320997,8.55469e-05,1.22273e-23
2.40005,0.0320737,8.85674e-05,-4.75641e-22
2.37499,0.032041,9.13939e-05,-8.31602e-23
2.34945,0.0320015,9.39883e-05,6.64914e-22
2.32344,0.0319552,9.63097e-05,1.19615e-22
2.29697,0.0319018,9.83136e-05,-4.11476e-22
2.27005,0.031841,9.99529e-05,-4.02786e-22
2.24272,0.0317726,0.000101178,9.20802e-23
2.21499,0.031696,0.000101939,-2.06143e-23
2.18687,0.031611,0.000102184,-6.35046e-22
2.1584,0.031517,0.000101862,5.32461e-22
2.1296,0.0314134,0.000100925,2.38393e-22
2.10049,0.0312998,9.93314e-05,-5.3597e-22
2.0711,0.0311754,9.70427e-05,2.54794e-22
2.04145,0.0310398,9.40313e-05,1.0851e-21
2.01158,0.0308922,9.02803e-05,1.21266e-22
1.9815,0.0307321,8.57865e-05,-1.38579e-21
1.95126,0.0305589,8.05625e-05,-1.26633e-22
1.92088,0.0303725,7.46393e-05,6.93815e-22
1.89039,0.0301723,6.8072e-05,5.8781e-22
1.85982,0.0299584,6.09465e-05,4.35489e-22
1.8292,0.0297306,5.33794e-05,-4.40556e-23
1.79856,0.029489,4.55147e-05,-3.92007e-22
1.76794,0.0292338,3.75146e-05,-2.95467e-21
1.73735,0.0289655,2.95502e-05,-3.84384e-22
1.70684,0.0286846,2.17971e-05,2.89302e-21
1.67642,0.0283921,1.44314e-05,4.08887e-22
1.64613,0.0280887,7.62439e-06,-8.25664e-23
1.61599,0.0277755,1.53535e-06,9.28663e-23
1.58603,0.0274537,-3.70117e-06,-1.79482e-21
1.55628,0.0271241,-7.98959e-06,1.33215e-21
1.52675,0.0267877,-1.12883e-05,2.18695e-21
1.49748,0.0264452,-1.36241e-05,-3.6071e-22
1.46848,0.026097,-1.51077e-05,-1.87012e-21
1.43978,0.0257431,-1.59486e-05,-1.58198e-21
1.41138,0.025383,-1.6471e-05,1.11126e-21
1.38332,0.0250151,-1.7129e-05,-1.13353e-21
1.35561,0.024637,-1.8517e-05,-1.01237e-21
1.32826,0.0242448,-2.13695e-05,-7.85598e-23
1.30129,0.0238325,-2.65358e-05,6.65172e-22
1.27471,0.0233922,-3.4913e-05,3.94227e-21
1.24853,0.022913,-4.73165e-05,1.68734e-21
1.22276,0.0223813,-6.42936e-05,-1.92455e-21
1.19741,0.0217814,-8.5961e-05,3.00011e-21
1.17249,0.0210949,-0.000111993,2.81027e-21
1.14801,0.0203004,-0.000140976,-1.14586e-21
1.12397,0.0193717,-0.000170073,5.11692e-23
1.10038,0.0182813,-0.000194491,-8.45235e-21
1.07724,0.0170095,-0.000208071,-1.58276e-20
1.05456,0.0155556,-0.000204577,5.99044e-21
1.03233,0.0139437,-0.000178402,1.26217e-20
1.01057,0.0122199,-0.000127011,5.59478e-24
0.989272,0.0104471,-5.0558e-05,-6.76088e-21
0.968438,0.00869503,4.84682e-05,7.42766e-21
0.948068,0.00702907,0.000164649,-3.17968e-21
0.928164,0.00550332,0.000291527,-6.06041e-21
0.908725,0.00415287,0.000422623,2.22049e-20
0.889751,0.00299147,0.000552501,7.40852e-21
0.87124,0.00201662,0.000678121,-1.09902e-20
0.85319,0.00121196,0.000797935,-8.86128e-21
0.835601,0.000554808,0.000910941,4.56597e-21
0.818469,2.42357e-05,0.00101665,-1.52929e-21
0.801792,-0.000400595,0.00111451,8.28298e-21
0.785567,-0.000739225,0.00120392,5.14835e-22
0.76979,-0.00100774,0.00128475,-3.1253e-21
0.754458,-0.00122011,0.00135716,-1.30724e-21
0.739566,-0.00138836,0.00142155,-2.01117e-20
0.72511,-0.00152232,0.00147849,8.11139e-23
0.711084,-0.00163008,0.00152872,1.18265e-20
0.697484,-0.00171814,0.00157302,-1.61347e-23
0.684303,-0.00179154,0.0016121,1.98794e-20
0.671536,-0.00185397,0.00164657,-2.89909e-22
0.659176,-0.001908,0.00167685,-2.05323e-20
0.647216,-0.00195533,0.00170323,-9.2023e-21
0.63565,-0.00199699,0.00172584,-1.63949e-20
0.62447,-0.00203351,0.00174473,-2.40381e-21
0.613668,-0.0020651,0.00175983,-8.6697e-21
0.603237,-0.00209167,0.00177098,1.66332e-20
0.593169,-0.00211291,0.00177794,5.9926e-20
0.583457,-0.00212833,0.00178032,-1.04623e-21
0.574091,-0.00213721,0.0017776,-3.57412e-20
0.565063,-0.00213858,0.00176911,-6.85434e-21
0.556366,-0.00213121,0.00175392,-1.80056e-20
0.547991,-0.00211352,0.00173085,6.72663e-21
0.53993,-0.00208355,0.00169845,-5.93646e-21
0.532175,-0.00203902,0.00165497,3.56835e-20
0.524719,-0.00197744,0.0015985,6.59792e-20
0.517553,-0.00189653,0.00152731,-8.09231e-20
0.510672,-0.00179483,0.00144031,-5.53693e-20
0.504069,-0.00167256,0.00133773,5.06148e-20
0.49774,-0.00153214,0.00122157,5.8742e-21
0.491681,-0.00137806,0.00109544,-5.60386e-20
0.485891,-0.00121589,0.000963774,4.17741e-21
0.480373,-0.00105107,0.000830856,1.17049e-19
0.475131,-0.000887985,0.00070012,4.32255e-21
0.470176,-0.000729897,0.000574055,-1.11283e-19
0.465527,-0.000579191,0.000454457,-2.9398e-21
0.461208,-0.000437829,0.00034276,5.00718e-20
0.457256,-0.00030769,0.000240328,1.94892e-23
0.453717,-0.000190736,0.000148659,-8.84961e-22
0.450649,-8.89589e-05,6.94773e-05,-1.71875e-22
0.44811,0,0,0
0.44811,2.91603e-18,-2.27697e-18,-5.78866e-37
0.44811,0,0,0
0.44811,0,0,0
