y,U_0,U_1,U_2
3.032,0.00474088,-1.19629e-06,-2.40866e-24
3.02776,0.00955397,-3.76317e-06,-1.03273e-23
3.0233,0.0142251,-7.47109e-06,1.71528e-23
3.0186,0.018276,-1.17682e-05,8.72466e-25
3.01367,0.0214434,-1.60481e-05,-1.53941e-23
3.00851,0.0238181,-1.99746e-05,3.97391e-23
3.00312,0.0255966,-2.33306e-05,5.98017e-24
2.99748,0.0269441,-2.59793e-05,-5.85919e-24
2.99159,0.0279788,-2.78851e-05,3.27571e-24
2.98545,0.0287829,-2.90604e-05,4.05711e-23
2.97904,0.0294158,-2.95549e-05,-1.68945e-23
2.97235,0.0299206,-2.94325e-05,-5.13345e-23
2.96538,0.0303281,-2.87576e-05,5.71773e-23
2.95812,0.030661,-2.75879e-05,6.63434e-23
2.95056,0.0309358,-2.5972e-05,-2.57211e-23
2.94268,0.0311645,-2.39493e-05,-6.81223e-23
2.93448,0.0313561,-2.15512e-05,-3.18193e-23
2.92595,0.0315173,-1.88018e-05,8.96005e-24
2.91707,0.0316533,-1.572e-05,2.94879e-23
2.90784,0.0317679,-1.23199e-05,-1.23846e-25
2.89825,0.0318644,-8.61216e-06,-1.7229e-23
2.88828,0.031945,-4.60465e-06,-1.72828e-23
2.87793,0.0320117,-3.03075e-07,-2.20885e-25
2.86719,0.0320662,4.28849e-06,-1.29209e-23
2.85604,0.0321096,9.16723e-06,-1.29739e-23
2.84447,0.032143,1.43313e-05,4.89405e-23
2.83249,0.0321672,1.97793e-05,7.33757e-23
2.82007,0.0321831,2.55105e-05,-9.15474e-23
2.80721,0.0321911,3.15243e-05,-4.1413e-24
2.79389,0.0321918,3.782e-05,4.62151e-23
2.78012,0.0321857,4.4397e-05,-6.66273e-23
2.76589,0.0321731,5.12543e-05,2.12811e-23
2.75118,0.0321544,5.83906e-05,1.94719e-23
2.73599,0.0321299,6.58041e-05,-2.14347e-23
2.72032,0.0320997,7.34921e-05,4.144e-23
2.70416,0.0320642,8.14515e-05,2.17321e-23
2.6875,0.0320236,8.9678e-05,-7.69117e-23
2.67035,0.0319779,9.81662e-05,-1.92705e-23
2.6527,0.0319275,0.00010691,1.14085e-22
2.63455,0.0318725,0.0001159,-5.78997e-23
2.61589,0.031813,0.000125127,-1.17316e-22
2.59674,0.0317492,0.000134581,1.9173e-22
2.57709,0.0316811,0.000144245,-3.47445e-23
2.55695,0.031609,0.000154105,-7.67921e-23
2.53632,0.031533,0.000164141,4.06103e-23
2.51521,0.0314532,0.000174331,-7.90569e-23
2.49362,0.0313696,0.000184648,7.38341e-23
2.47156,0.0312825,0.000195063,1.61227e-22
2.44905,0.0311919,0.00020554,-3.11073e-23
2.4261,0.031098,0.000216041,-1.63306e-22
2.40272,0.0310009,0.000226521,8.07673e-23
2.37892,0.0309007,0.000236928,3.97057e-23
2.35472,0.0307975,0.000247206,-3.51355e-23
2.33014,0.0306914,0.000257288,3.96648e-24
2.3052,0.0305825,0.000267103,-5.38813e-23
2.27992,0.0304709,0.000276572,5.29939e-25
2.25432,0.0303567,0.000285604,-1.01027e-22
2.22843,0.03024,0.000294104,-1.19222e-23
2.20226,0.0301209,0.000301965,-1.05102e-24
2.17584,0.0299993,0.000309072,1.70825e-23
2.14921,0.0298754,0.000315301,3.14966e-22
2.12238,0.0297492,0.000320521,6.27847e-25
2.09539,0.0296207,0.000324592,-2.17547e-22
2.06826,0.0294898,0.000327366,1.23034e-22
2.04103,0.0293566,0.000328691,6.09627e-24
2.01372,0.029221,0.000328408,-1.29393e-22
1.98636,0.0290829,0.000326357,-1.36406e-22
1.95899,0.0289423,0.000322374,-3.69265e-24
1.93163,0.028799,0.000316296,4.26596e-22
1.90432,0.0286528,0.000307965,4.44261e-22
1.87709,0.0285036,0.000297224,-4.32316e-22
1.84995,0.0283513,0.000283924,-6.0314e-22
1.82296,0.0281956,0.000267927,2.59997e-22
1.79612,0.0280363,0.000249105,3.6746e-23
1.76948,0.0278732,0.000227345,-6.42239e-22
1.74306,0.027706,0.00020255,1.32914e-22
1.71688,0.0275346,0.000174642,5.22835e-22
1.69097,0.0273586,0.000143561,3.86618e-22
1.66535,0.0271778,0.00010927,-7.45731e-22
1.64006,0.0269919,7.17545e-05,-4.06182e-22
1.6151,0.0268008,3.10216e-05,1.15967e-21
1.5905,0.0266042,-1.28967e-05,-4.85555e-22
1.56629,0.0264018,-5.99454e-05,3.24508e-23
1.54247,0.0261936,-0.000110046,8.91909e-22
1.51906,0.0259792,-0.000163099,-8.64349e-22
1.49609,0.0257586,-0.000218983,5.42296e-22
1.47355,0.0255317,-0.000277556,3.40882e-22
1.45147,0.0252984,-0.00033866,-8.42771e-22
1.42986,0.0250585,-0.000402122,-5.33732e-22
1.40872,0.0248121,-0.000467756,-1.13181e-21
1.38806,0.0245592,-0.000535367,1.19085e-21
1.3679,0.0242999,-0.000604752,1.18206e-21
1.34822,0.0240342,-0.00067571,-2.73903e-21
1.32904,0.0237622,-0.000748039,1.40684e-21
1.31036,0.023484,-0.000821545,2.09432e-21
1.29218,0.0231998,-0.000896043,1.02675e-22
1.27451,0.0229098,-0.000971366,9.42305e-23
1.25732,0.022614,-0.00104736,-1.44319e-21
1.24064,0.0223127,-0.00112391,8.40433e-22
1.22444,0.0220058,-0.0012009,9.95827e-23
1.20874,0.0216933,-0.00127826,-5.47701e-21
1.19351,0.0213752,-0.00135592,-8.44498e-22
1.17876,0.0210512,-0.00143384,2.07509e-21
1.16448,0.0207208,-0.00151197,-3.66955e-21
1.15066,0.0203833,-0.00159023,2.96707e-21
1.13729,0.0200378,-0.0016685,4.75929e-21
1.12437,0.0196831,-0.0017466,8.52901e-21
1.11188,0.0193176,-0.00182421,4.20263e-21
1.09981,0.0189393,-0.00190086,-4.47174e-21
1.08816,0.0185459,-0.0019759,1.4997e-21
1.07691,0.0181347,-0.00204841,-1.75651e-21
1.06606,0.017703,-0.00211724,-7.04972e-21
1.05559,0.0172475,-0.00218094,-4.47447e-21
1.04549,0.0167651,-0.00223775,4.84765e-21
1.03576,0.0162524,-0.00228568,9.43157e-21
1.02638,0.0157067,-0.00232249,-6.12602e-21
1.01734,0.0151252,-0.0023458,-1.01696e-20
1.00863,0.014506,-0.00235317,-1.19375e-20
1.00025,0.0138477,-0.00234219,-4.59843e-21
0.992173,0.0131498,-0.0023105,2.73687e-20
0.984401,0.0124125,-0.00225584,-1.02075e-20
0.976921,0.0116367,-0.00217646,-2.99766e-20
0.969724,0.0108256,-0.0020716,9.42252e-21
0.962799,0.00998426,-0.00194139,2.58746e-20
0.95614,0.00911793,-0.00178576,-8.86455e-22
0.949735,0.00822948,-0.00160399,-1.34816e-21
0.943578,0.00732201,-0.00139586,8.7119e-21
0.937659,0.00640391,-0.00116369,-8.58646e-21
0.93197,0.00548692,-0.000912301,-4.52621e-24
0.926504,0.00458231,-0.000647203,1.19535e-24
0.921252,0.00370035,-0.000373313,2.21484e-24
0.916208,0.00284803,-9.39605e-05,0
0.911364,0.00202844,0.00018898,-1.27639e-20
0.906712,0.0012461,0.000472949,7.38176e-20
0.902247,0.000509159,0.000753439,-3.9234e-21
0.897961,-0.000175178,0.00102546,-9.56631e-20
0.893848,-0.000801347,0.00128419,7.95911e-20
0.8899,-0.00136145,0.00152327,6.7777e-20
0.886114,-0.001843,0.00173297,-3.75263e-20
0.882481,-0.00222795,0.00189905,-7.57025e-20
0.878997,-0.00249363,0.0020033,-8.21007e-20
0.875655,-0.00261947,0.00202805,6.09225e-21
0.87245,-0.00259592,0.0019628,1.608e-19
0.869377,-0.00242845,0.00180762,-3.41001e-20
0.866434,-0.00213317,0.00157037,1.02409e-20
0.863613,-0.00172927,0.00126142,-1.02423e-20
0.86091,-0.00123328,0.000890767,-2.13322e-19
0.858318,-0.000656143,0.000469454,-3.72288e-22
0.855829,0,0,0
0.855829,0,0,0
