y,U_0,U_1,U_2
3.035,-0.000191088,4.21664e-07,3.8137e-26
3.032,-0.000764443,1.68685e-06,1.52566e-25
3.02765,-0.00122946,9.22152e-06,-2.49175e-22
3.02299,-0.0013612,2.4594e-05,-2.36647e-22
3.01803,-0.00118161,4.86369e-05,1.75288e-22
3.01279,-0.000835067,7.80442e-05,-2.85778e-22
3.00727,-0.000470901,0.000108808,-1.43947e-22
3.00148,-0.000145478,0.000138605,2.983e-22
2.99541,0.000140494,0.00016564,1.60126e-22
2.98906,0.000398764,0.00018788,2.81689e-23
2.98243,0.000642071,0.00020313,3.4907e-22
2.9755,0.000882959,0.000209033,4.46646e-23
2.96827,0.00113419,0.000202987,-2.35259e-22
2.96073,0.00140918,0.000182076,1.11114e-23
2.95288,0.00172236,0.000142994,-1.89294e-22
2.94469,0.00208934,8.19738e-05,1.84806e-22
2.93617,0.00252699,-5.28427e-06,5.01277e-24
2.92729,0.00305329,-0.000123676,-1.70736e-22
2.91805,0.00368717,-0.000278785,1.46776e-25
2.90844,0.00444789,-0.000476904,3.75773e-22
2.89845,0.00535454,-0.000725391,-3.68046e-22
2.88807,0.00642655,-0.00103343,-1.69179e-23
2.87728,0.00768367,-0.00141036,3.71698e-22
2.86607,0.00915322,-0.00186796,-6.91991e-22
2.85444,0.0108734,-0.00242203,3.17953e-24
2.84236,0.0128756,-0.00308493,-1.06005e-21
2.82984,0.0151782,-0.00386609,-6.20919e-24
2.81686,0.0177834,-0.00477253,2.0534e-21
2.80341,0.0206624,-0.00580096,8.45748e-22
2.78948,0.0237558,-0.00693881,-5.9056e-22
2.77506,0.0269853,-0.00816704,-1.29653e-21
2.76014,0.0302632,-0.00946023,-6.47912e-22
2.74472,0.0335011,-0.0107892,-2.04842e-22
2.72878,0.0366162,-0.0121232,5.07196e-22
2.71231,0.0395372,-0.0134338,6.10239e-22
2.69532,0.0422082,-0.0146937,-4.47962e-22
2.6778,0.0445945,-0.0158809,7.76077e-23
2.65973,0.0466833,-0.0169831,4.20173e-22
2.64113,0.0484745,-0.0179897,-1.10021e-22
2.62197,0.0499789,-0.0188947,-5.72835e-24
2.60227,0.0512159,-0.0196995,1.41872e-22
2.58201,0.0522049,-0.0204055,-6.29718e-23
2.56121,0.0529659,-0.0210153,-1.434e-22
2.53986,0.0535191,-0.021535,-1.56924e-22
2.51797,0.0538855,-0.0219712,-6.84951e-23
2.49553,0.0540863,-0.0223316,3.7373e-22
2.47256,0.054142,-0.0226246,2.94658e-22
2.44906,0.0540713,-0.0228583,6.79021e-23
2.42504,0.0538907,-0.0230407,-4.97972e-22
2.40051,0.0536141,-0.0231791,-5.81002e-23
2.37548,0.0532528,-0.0232799,-3.82481e-22
2.34996,0.0528156,-0.0233484,2.60534e-22
2.32397,0.0523093,-0.0233891,2.01449e-21
2.29753,0.0517392,-0.0234055,2.43779e-22
2.27065,0.0511092,-0.0234006,-1.2685e-21
2.24335,0.0504224,-0.0233765,-5.71343e-22
2.21564,0.0496814,-0.0233351,1.57769e-21
2.18757,0.0488881,-0.0232779,-6.73691e-22
2.15913,0.0480445,-0.0232063,-6.53344e-22
2.13037,0.0471525,-0.0231212,7.55773e-22
2.1013,0.0462141,-0.0230238,-9.89998e-22
2.07194,0.0452315,-0.0229151,8.11844e-23
2.04234,0.0442074,-0.022796,-7.98459e-22
2.01251,0.0431452,-0.0226673,6.09303e-22
1.98249,0.0420499,-0.0225293,1.69038e-21
1.9523,0.0409289,-0.0223825,8.79328e-22
1.92197,0.0397885,-0.0222275,6.55208e-23
1.89154,0.038625,-0.0220647,-2.22518e-21
1.86103,0.0374304,-0.0218949,-7.48227e-22
1.83048,0.0362014,-0.0217196,5.39123e-22
1.79991,0.0349394,-0.0215405,-1.33815e-21
1.76935,0.033647,-0.0213586,-2.47027e-22
1.73884,0.0323275,-0.0211753,-4.54285e-23
1.7084,0.0309839,-0.0209915,5.06879e-22
1.67806,0.0296192,-0.0208081,-3.22236e-22
1.64785,0.0282365,-0.0206259,3.99952e-22
1.6178,0.0268384,-0.0204458,1.81081e-21
1.58794,0.0254276,-0.0202682,-9.09659e-24
1.55828,0.0240068,-0.0200938,-1.84181e-22
1.52885,0.0225784,-0.019923,-6.06134e-22
1.49968,0.021145,-0.0197561,1.37717e-24
1.47079,0.0197088,-0.0195934,1.33422e-24
1.44219,0.0182722,-0.0194352,9.18432e-22
1.41391,0.0168375,-0.0192815,8.22541e-23
1.38597,0.0154071,-0.0191324,-9.99564e-22
1.35838,0.0139833,-0.0189881,-1.04878e-21
1.33115,0.0125683,-0.0188485,-6.06644e-23
1.3043,0.0111647,-0.0187136,1.10872e-21
1.27785,0.0097748,-0.0185833,-5.64263e-22
1.25179,0.00840149,-0.0184573,-1.38245e-21
1.22616,0.00704782,-0.0183353,6.29073e-22
1.20094,0.00571741,-0.0182168,-9.1763e-22
1.17616,0.00441467,-0.0181007,7.48874e-22
1.15181,0.00314524,-0.0179854,2.27191e-21
1.12791,0.00191663,-0.0178687,1.27351e-21
1.10446,0.000739013,-0.0177472,1.27812e-21
1.08146,-0.00037437,-0.0176171,-2.68356e-21
1.05891,-0.00140799,-0.0174742,-6.27403e-22
1.03683,-0.00234675,-0.0173145,1.58311e-22
1.01521,-0.00318008,-0.0171351,-5.76342e-22
0.994047,-0.00390532,-0.0169343,1.98846e-21
0.973351,-0.00452654,-0.0167125,-4.8044e-23
0.95312,-0.0050515,-0.0164701,-1.29304e-21
0.933353,-0.00548937,-0.0162075,8.33099e-22
0.914051,-0.00584853,-0.0159256,-9.54231e-23
0.895211,-0.0061363,-0.0156257,-1.86167e-21
0.876834,-0.0063594,-0.0153085,-1.05189e-21
0.858917,-0.0065238,-0.0149748,2.07105e-22
0.841459,-0.00663479,-0.0146251,9.87424e-22
0.824456,-0.00669716,-0.0142602,2.32655e-21
0.807907,-0.00671513,-0.0138806,-1.02896e-21
0.791807,-0.00669236,-0.0134868,-7.83669e-22
0.776154,-0.00663231,-0.0130791,1.018e-21
0.760943,-0.00653873,-0.0126586,-1.49482e-21
0.74617,-0.00641571,-0.0122269,2.81275e-23
0.731831,-0.00626755,-0.0117856,1.5393e-21
0.71792,-0.00609892,-0.011337,-6.68106e-22
0.704431,-0.00591511,-0.0108838,-7.21199e-22
0.69136,-0.00572244,-0.0104295,6.87942e-22
0.678699,-0.00552844,-0.00997863,-1.34126e-21
0.666443,-0.00534099,-0.00953622,-5.36479e-23
0.654585,-0.00516738,-0.00910666,2.27241e-21
0.643117,-0.00501393,-0.00869536,1.25491e-21
0.632033,-0.00488365,-0.00830599,-8.37824e-22
0.621324,-0.00477536,-0.00793781,-1.28344e-21
0.610984,-0.0046874,-0.00759078,-6.87275e-23
0.601004,-0.0046195,-0.00726612,2.25067e-22
0.591376,-0.00457195,-0.0069645,-2.41862e-22
0.582093,-0.0045452,-0.00668657,-2.10092e-22
0.573147,-0.0045397,-0.00643291,2.28301e-22
0.564528,-0.00455583,-0.00620408,-1.66426e-21
0.55623,-0.0045939,-0.00600054,-1.39888e-21
0.548243,-0.0046542,-0.00582271,1.83052e-21
0.540561,-0.00473691,-0.00567091,1.88754e-21
0.533175,-0.00484216,-0.00554538,-2.20674e-21
0.526078,-0.00496995,-0.00544626,-2.16806e-21
0.519264,-0.00512011,-0.00537358,2.97344e-21
0.512726,-0.00529228,-0.00532722,2.31867e-21
0.506459,-0.00548579,-0.00530684,-3.02107e-21
0.50046,-0.00569945,-0.00531176,3.91541e-22
0.494727,-0.00593121,-0.0053407,3.86378e-21
0.489263,-0.00617735,-0.00539122,4.65469e-22
0.484071,-0.00643051,-0.00545829,-9.11463e-21
0.479162,-0.00667423,-0.00553019,-1.02358e-20
0.474553,-0.00686522,-0.00557417,2.26459e-20
0.470269,-0.00686928,-0.0054852,1.86606e-20
0.466343,-0.00632351,-0.00498184,3.88698e-21
0.462824,-0.00485137,-0.00378162,4.02329e-21
0.459764,-0.00262084,-0.00202803,-4.23399e-21
0.457222,0,0,0
